Program Version,EnergyPlus, Version 8.6.0-198c6a3cff, YMD=2017.04.08 22:04
1,5,Environment Title[],Latitude[deg],Longitude[deg],Time Zone[],Elevation[m]
2,6,Day of Simulation[],Month[],Day of Month[],DST Indicator[1=yes 0=no],Hour[],StartMinute[],EndMinute[],DayType
3,3,Cumulative Day of Simulation[],Month[],Day of Month[],DST Indicator[1=yes 0=no],DayType  ! When Daily Report Variables Requested
4,2,Cumulative Days of Simulation[],Month[]  ! When Monthly Report Variables Requested
5,1,Cumulative Days of Simulation[] ! When Run Period Report Variables Requested
6,9,Environment,Site Outdoor Air Drybulb Temperature [C] !Monthly [Value,Min,Day,Hour,Minute,Max,Day,Hour,Minute]
7,9,Environment,Site Ground Reflected Solar Radiation Rate per Area [W/m2] !Monthly [Value,Min,Day,Hour,Minute,Max,Day,Hour,Minute]
End of Data Dictionary
1,RUN PERIOD 1,  41.98, -87.92,  -6.00, 201.00
4,31, 1
6,-4.644209229390679,-22.8, 7, 7,60,12.2,21,15,60
7,14.442431270656373,0.0, 1, 1,10,102.77922819224688,27,13,10
4,59, 2
6,-2.5239583333333348,-21.7, 6, 5,60,14.400000000000003,23,11,20
7,20.556744033010255,0.0, 1, 1,10,130.80088667059023,28,12,60
4,90, 3
6,3.824372759856629,-7.8,18, 3,60,21.1,27,15,60
7,28.43535591333556,0.0, 1, 1,10,159.26173203712768,26,12,30
4,120, 4
6,9.945740740740743,-3.9, 4,24,60,31.1,15,15,60
7,36.388407127732268,0.0, 1, 1,10,184.83105698942124,26,12,50
4,151, 5
6,15.304861111111127,1.7, 9, 5,60,30.6, 5,13,60
7,49.492550820046428,0.0, 1, 1,10,192.53853285170625,30,12,30
4,181, 6
6,21.10951388888888,6.7,25, 4,60,33.3, 8,13,60
7,52.22038731736957,0.0, 1, 1,10,190.00973552350914,24,13,30
4,212, 7
6,24.132627688172009,11.7, 3, 4,60,35.0,19,15,60
7,51.2614590037867,0.0, 1, 1,10,193.58874750831368, 4,12,30
4,243, 8
6,21.776456093189979,11.7, 7, 1,60,31.700000000000004, 3,15,10
7,42.78554600111025,0.0, 1, 1,10,184.53416576000815, 1,12,30
4,273, 9
6,18.137303240740743,6.7,25, 6,60,31.7,27,16,60
7,34.6588287154816,0.0, 1, 1,10,166.1787553486713, 4,12,50
4,304,10
6,10.981787634408607,-0.6,24, 3,60,26.1,21,14,60
7,24.23280844569597,0.0, 1, 1,10,138.94601060354385, 8,12,30
4,334,11
6,4.734849537037025,-16.1,26, 7,60,21.700000000000004, 2,14,20
7,14.958869781102623,0.0, 1, 1,10,99.49536994643516,12,12,30
4,365,12
6,-3.6810035842293957,-18.3,20, 7,60,11.1, 7,15,60
7,12.286240321640343,0.0, 1, 1,10,86.66578873388095, 5,12,40
End of Data
 Number of Records Written=          24
