Program Version,EnergyPlus, Version 8.6.0-198c6a3cff, YMD=2017.03.26 12:27
1,5,Environment Title[],Latitude[deg],Longitude[deg],Time Zone[],Elevation[m]
2,6,Day of Simulation[],Month[],Day of Month[],DST Indicator[1=yes 0=no],Hour[],StartMinute[],EndMinute[],DayType
3,3,Cumulative Day of Simulation[],Month[],Day of Month[],DST Indicator[1=yes 0=no],DayType  ! When Daily Meters Requested
4,2,Cumulative Days of Simulation[],Month[]  ! When Monthly Meters Requested
5,1,Cumulative Days of Simulation[] ! When Run Period Meters Requested
12,9,Electricity:Facility [J] !Monthly  [Value,Min,Day,Hour,Minute,Max,Day,Hour,Minute]
593,9,Gas:Facility [J] !Monthly  [Value,Min,Day,Hour,Minute,Max,Day,Hour,Minute]
End of Data Dictionary
1,RUN PERIOD 1,  41.78, -87.75,  -6.00, 186.00
4,31, 1
12,891552904970.5204,19010613.771429328, 1, 1,10,1091214262.3687807,30, 6,10
593,14586474729.052809,11999.999999999996, 9,23,30,14835090.618593961,31,13,40
4,59, 2
12,711756160157.9319,19010613.771429328, 4, 1,10,1015241899.8589616, 3, 6,10
593,13464631172.692717,11999.999999999996, 2, 7,10,14836276.886329541,15,13,10
4,90, 3
12,604046496950.2368,19010613.771429328, 4, 1,10,716540084.0160978, 2, 6,10
593,14999701730.30678,11999.999999999996, 1,23,30,14835259.433891966, 2,13,20
4,120, 4
12,422036318465.30225,19010613.771429328, 1, 1,10,422314042.1277009,17, 6,10
593,12967866427.347285,11999.999999999996,11,23,20,14825894.648619235, 3,13,60
4,151, 5
12,419037304474.51465,19010613.771429328, 6, 1,10,295442587.61766019, 2, 8,10
593,13459785608.673405,11999.999999999996,12, 6,10,14813622.891299613, 2,13,60
4,181, 6
12,457472807843.77,19010613.771429328, 3, 1,10,287889734.04497119,14,15,60
593,12018959843.426384,11999.999999999996,19, 6,20,9869330.418127433, 1,13,60
4,212, 7
12,474834299993.9805,19010613.771429328, 1, 1,10,333726300.5662162,24,15,60
593,11186432176.955624,11999.999999999996,11, 6,10,9859683.229919322, 4,13,30
4,243, 8
12,498534632753.126,19010613.771429328, 5, 1,10,289383779.4575705, 1,17,30
593,11641656734.710316,11999.999999999996, 1, 6,10,9855238.854410394, 1,13,50
4,273, 9
12,449017130480.698,19010613.771429328, 2, 1,10,288578869.681652, 6,15,60
593,11175426656.383202,11999.999999999998, 4, 6,10,9859652.868747868,26,13,20
4,304,10
12,460048624725.9222,19010613.771429328, 1, 1,10,432277377.6271714,23, 6,10
593,12201802853.08335,11999.999999999996,20, 6,10,9869752.974676816,30,13,40
4,334,11
12,517510011191.04034,19010613.771429328, 4, 1,10,572503758.6654056,30, 6,10
593,12987463452.24448,11999.999999999996, 1, 6,10,9878643.471242503,27,13,60
4,365,12
12,741975525907.6497,19010613.771429328, 2, 1,10,961311640.7267774,25, 6,10
593,13612433308.530625,11999.999999999996, 1, 6,20,14826910.75331504,28,13,30
End of Data
 Number of Records Written=          24
