Program Version,EnergyPlus, Version 8.6.0-198c6a3cff, YMD=2017.03.26 20:53
1,5,Environment Title[],Latitude[deg],Longitude[deg],Time Zone[],Elevation[m]
2,6,Day of Simulation[],Month[],Day of Month[],DST Indicator[1=yes 0=no],Hour[],StartMinute[],EndMinute[],DayType
3,3,Cumulative Day of Simulation[],Month[],Day of Month[],DST Indicator[1=yes 0=no],DayType  ! When Daily Meters Requested
4,2,Cumulative Days of Simulation[],Month[]  ! When Monthly Meters Requested
5,1,Cumulative Days of Simulation[] ! When Run Period Meters Requested
12,9,Electricity:Facility [J] !Monthly  [Value,Min,Day,Hour,Minute,Max,Day,Hour,Minute]
593,9,Gas:Facility [J] !Monthly  [Value,Min,Day,Hour,Minute,Max,Day,Hour,Minute]
End of Data Dictionary
1,RUN PERIOD 1,  41.78, -87.75,  -6.00, 186.00
4,31, 1
12,956638960744.4708,29640175.831523658, 3, 1,10,862660091.402062,19, 6,10
593,14723428359.78007,11999.999999999996, 7,23,30,14835008.490296493,30,13,10
4,59, 2
12,773357777474.4004,29640175.831523658, 1, 1,10,1075343850.8818043, 2, 6,10
593,13460026275.250742,11999.999999999996, 2, 7,10,14836784.568669459, 9,13,40
4,90, 3
12,688884870175.0018,29640175.831523658, 1, 1,10,778304003.0477871, 2, 6,10
593,14512977360.20534,11999.999999999996, 2,23,30,14835177.826599606, 5,13,30
4,120, 4
12,586857207176.8263,29640175.831523658, 4, 1,10,349049803.71667978,17, 8,10
593,13764965826.43683,11999.999999999996, 9,23,20,14827009.357293932, 1,13,20
4,151, 5
12,555684698229.7028,29640175.831523658, 2, 1,10,345196691.6097083,19,17,60
593,12683026339.845868,11999.999999999996, 8, 6,10,9877646.53777856, 4,13,60
4,181, 6
12,662367469702.0956,29640175.831523658, 6, 1,10,461121058.3337285,15, 9,30
593,12029150749.361702,11999.999999999996, 1, 6,10,9867983.479200392, 3,13,60
4,212, 7
12,733654905972.2432,29640175.831523658, 4, 1,10,463143699.2186027,24,15,60
593,11849283947.78758,11999.999999999996, 1, 6,10,9859566.862805061, 3,13,40
4,243, 8
12,696584153946.2833,29640175.831523658, 1, 1,10,409286315.8541713, 3,14,30
593,10969234191.529908,11999.999999999996, 3, 6,20,9854909.89145267, 7,13,20
4,273, 9
12,656291074018.2089,29640175.831523658, 5, 1,10,420076087.0708505,14,10,60
593,11426414378.85743,11999.999999999996, 7, 6,20,9860701.466125286,30,13,50
4,304,10
12,609553017764.233,29640175.831523658, 3, 1,10,406189910.83627107,26, 6,10
593,12314137257.89657,11999.999999999996,21, 6,10,9869406.313017793,29,13,40
4,334,11
12,613167490539.6105,29640175.831523658, 1, 1,10,627209729.4482917,30, 6,10
593,12530619187.09201,11999.999999999996, 3, 6,20,14814521.439929013,30,13,30
4,365,12
12,841747097514.9243,29640175.831523658, 5, 1,10,755378732.7798153,24, 6,10
593,14424468802.928847,11999.999999999996, 7,23,20,14827212.263435295,31,13,60
End of Data
 Number of Records Written=          24
