Program Version,EnergyPlus, Version 8.6.0-198c6a3cff, YMD=2017.03.26 12:27
1,5,Environment Title[],Latitude[deg],Longitude[deg],Time Zone[],Elevation[m]
2,6,Day of Simulation[],Month[],Day of Month[],DST Indicator[1=yes 0=no],Hour[],StartMinute[],EndMinute[],DayType
3,3,Cumulative Day of Simulation[],Month[],Day of Month[],DST Indicator[1=yes 0=no],DayType  ! When Daily Meters Requested
4,2,Cumulative Days of Simulation[],Month[]  ! When Monthly Meters Requested
5,1,Cumulative Days of Simulation[] ! When Run Period Meters Requested
12,9,Electricity:Facility [J] !Monthly  [Value,Min,Day,Hour,Minute,Max,Day,Hour,Minute]
593,9,Gas:Facility [J] !Monthly  [Value,Min,Day,Hour,Minute,Max,Day,Hour,Minute]
End of Data Dictionary
1,RUN PERIOD 1,  41.78, -87.75,  -6.00, 186.00
4,31, 1
12,891390453623.2158,19010613.771429328, 1, 1,10,1091011487.589011,30, 6,10
593,14586467718.698597,11999.999999999996, 9,23,30,14835082.897220914,31,13,40
4,59, 2
12,711756242203.3519,19010613.771429328, 4, 1,10,1015437601.0216279, 3, 6,10
593,13464625603.081398,11999.999999999996, 2, 7,10,14836298.02979077,15,13,10
4,90, 3
12,604055293775.0101,19010613.771429328, 4, 1,10,716705773.5478349, 2, 6,10
593,14999721757.641076,11999.999999999996, 1,23,30,14835287.146203118, 2,13,20
4,120, 4
12,422077532025.2227,19010613.771429328, 1, 1,10,422130808.88280907,17, 6,10
593,12967872143.187659,11999.999999999996,11,23,20,14825910.412333815, 3,13,60
4,151, 5
12,419088301732.2947,19010613.771429328, 6, 1,10,295382532.65420529, 2, 8,10
593,13459791100.82197,11999.999999999996, 2,23,20,14474325.756305052, 2,13,60
4,181, 6
12,457524250259.64417,19010613.771429328, 3, 1,10,287921317.01464709,14,15,60
593,12018956425.481699,11999.999999999996,19, 6,20,9869293.939214198, 1,13,60
4,212, 7
12,474901685957.12225,19010613.771429328, 1, 1,10,333767686.0080046,24,15,60
593,11186422446.230269,11999.999999999996,11, 6,10,9859661.99076338, 4,13,30
4,243, 8
12,498627634772.66205,19010613.771429328, 5, 1,10,289412639.75110098, 1,17,30
593,11641656458.604657,11999.999999999996, 1, 6,10,9855241.784097488, 1,13,50
4,273, 9
12,449066478487.4761,19010613.771429328, 2, 1,10,288624547.6981454, 6,15,60
593,11175426404.754197,11999.999999999998, 4, 6,10,9859656.680912922,26,13,20
4,304,10
12,460074349976.3023,19010613.771429328, 1, 1,10,432216568.0710607,23, 6,10
593,12201797921.068783,11999.999999999996,20, 6,10,9869753.894897137,30,13,40
4,334,11
12,517484511236.0404,19010613.771429328, 4, 1,10,572547334.4861139,30, 6,10
593,12987458217.594752,11999.999999999996, 1, 6,10,9878631.567050919,27,13,60
4,365,12
12,741899986631.061,19010613.771429328, 2, 1,10,961049527.3832678,25, 6,10
593,13612444047.181757,11999.999999999996, 1, 6,20,14826844.164547949,28,13,30
End of Data
 Number of Records Written=          24
