Program Version,EnergyPlus, Version 8.6.0-198c6a3cff, YMD=2017.03.26 12:27
1,5,Environment Title[],Latitude[deg],Longitude[deg],Time Zone[],Elevation[m]
2,6,Day of Simulation[],Month[],Day of Month[],DST Indicator[1=yes 0=no],Hour[],StartMinute[],EndMinute[],DayType
3,3,Cumulative Day of Simulation[],Month[],Day of Month[],DST Indicator[1=yes 0=no],DayType  ! When Daily Report Variables Requested
4,2,Cumulative Days of Simulation[],Month[]  ! When Monthly Report Variables Requested
5,1,Cumulative Days of Simulation[] ! When Run Period Report Variables Requested
6,9,Environment,Site Outdoor Air Drybulb Temperature [C] !Monthly [Value,Min,Day,Hour,Minute,Max,Day,Hour,Minute]
7,9,Environment,Site Ground Reflected Solar Radiation Rate per Area [W/m2] !Monthly [Value,Min,Day,Hour,Minute,Max,Day,Hour,Minute]
End of Data Dictionary
1,RUN PERIOD 1,  41.78, -87.75,  -6.00, 186.00
4,31, 1
6,-5.679110663082439,-21.0,30, 4,60,16.0, 2,18,60
7,13.618466108749058,0.0, 1, 1,10,103.00783430780369,30,13,20
4,59, 2
6,-1.7734747023809526,-27.3, 3, 7,60,15.5,23,15,60
7,18.478556941154197,0.0, 1, 1,10,128.62958727464139,24,13,10
4,90, 3
6,4.884341397849465,-11.200000000000001, 2, 7,10,23.8,14,14,60
7,24.818990734256816,0.0, 1, 1,10,157.04425736665019,24,12,30
4,120, 4
6,11.206516203703702,3.0,17, 4,60,26.0, 7,16,60
7,33.69697569995209,0.0, 1, 1,10,188.2246456341045,30,12,40
4,151, 5
6,13.861827956989224,4.0, 2,24,60,29.0, 9,15,60
7,44.909554666929938,0.0, 1, 1,10,192.0030957822311,22,12,40
4,181, 6
6,21.372569444444438,9.0, 4,19,60,34.0,13,15,60
7,49.74745753733617,0.0, 1, 1,10,189.7977345725828,24,12,30
4,212, 7
6,25.184531810035865,15.0,28, 4,60,40.0,24,15,60
7,51.57937664146203,0.0, 1, 1,10,185.95660342131087, 2,12,60
4,243, 8
6,24.21609543010753,15.0,20, 5,60,34.0, 1,12,60
7,44.75376115317392,0.0, 1, 1,10,178.58336121274466, 1,12,50
4,273, 9
6,21.180092592592545,10.0,23, 2,60,34.0, 6,14,60
7,37.116431831562639,0.0, 1, 1,10,164.095190892628, 2,12,40
4,304,10
6,13.551433691756245,2.0,23, 4,60,31.0, 4,13,60
7,23.645117429227516,0.0, 1, 1,10,139.9284409253388, 1,12,40
4,334,11
6,8.649710648148153,-4.0,30, 4,60,24.0, 1,12,60
7,19.464222587200497,0.0, 1, 1,10,104.21455422654418, 4,12,30
4,365,12
6,-0.7575492831541222,-18.0,24, 5,60,14.0,31, 1,60
7,13.605610002548448,0.0, 1, 1,10,86.61741452079078, 1,12,30
End of Data
 Number of Records Written=          24
