Program Version,EnergyPlus, Version 8.6.0-198c6a3cff, YMD=2017.03.26 23:23
1,5,Environment Title[],Latitude[deg],Longitude[deg],Time Zone[],Elevation[m]
2,6,Day of Simulation[],Month[],Day of Month[],DST Indicator[1=yes 0=no],Hour[],StartMinute[],EndMinute[],DayType
3,3,Cumulative Day of Simulation[],Month[],Day of Month[],DST Indicator[1=yes 0=no],DayType  ! When Daily Meters Requested
4,2,Cumulative Days of Simulation[],Month[]  ! When Monthly Meters Requested
5,1,Cumulative Days of Simulation[] ! When Run Period Meters Requested
9,1,Electricity:Facility [J] !TimeStep
142,1,Gas:Facility [J] !TimeStep
550,1,DistrictCooling:Facility [J] !TimeStep
519,1,DistrictHeating:Facility [J] !TimeStep
End of Data Dictionary
1,CHICAGO OHARE INTL AP ANN CLG .4% CONDNS DB=>MWB,  41.78, -87.75,  -6.00, 186.00
2,1, 7,21, 0, 1, 0.00,15.00,SummerDesignDay
9,1642993.8461538463
142,20326844.953121526
519,0.0
550,1715462.8712074974
2,1, 7,21, 0, 1,15.00,30.00,SummerDesignDay
9,1642993.8461538463
142,22368879.62090142
519,0.0
550,1763247.8854701268
2,1, 7,21, 0, 1,30.00,45.00,SummerDesignDay
9,1642993.8461538463
142,20327508.362777264
519,0.0
550,1804537.068116069
2,1, 7,21, 0, 1,45.00,60.00,SummerDesignDay
9,1642993.8461538463
142,22369584.34788246
519,0.0
550,1840559.276112736
2,1, 7,21, 0, 2, 0.00,15.00,SummerDesignDay
9,1642993.8461538463
142,20328155.679796988
519,0.0
550,1876585.1743378428
2,1, 7,21, 0, 2,15.00,30.00,SummerDesignDay
9,1642993.8461538463
142,22370272.006660079
519,0.0
550,1908229.962710375
2,1, 7,21, 0, 2,30.00,45.00,SummerDesignDay
9,1642993.8461538463
142,20328787.34212972
519,0.0
550,1935950.692736878
2,1, 7,21, 0, 2,45.00,60.00,SummerDesignDay
9,1642993.8461538463
142,22370943.06053366
519,0.0
550,1960667.0003835175
2,1, 7,21, 0, 3, 0.00,15.00,SummerDesignDay
9,1642993.8461538463
142,20329403.773671055
519,0.0
550,1984741.5968919895
2,1, 7,21, 0, 3,15.00,30.00,SummerDesignDay
9,1642993.8461538463
142,22371597.95799053
519,0.0
550,2006305.1411645148
2,1, 7,21, 0, 3,30.00,45.00,SummerDesignDay
9,1642993.8461538463
142,20330005.38481322
519,0.0
550,2025110.1938455036
2,1, 7,21, 0, 3,45.00,60.00,SummerDesignDay
9,1642993.8461538463
142,22372237.133283426
519,0.0
550,2041699.384451572
2,1, 7,21, 0, 4, 0.00,15.00,SummerDesignDay
9,1642993.8461538463
142,20330592.57296251
519,0.0
550,2056017.6148729546
2,1, 7,21, 0, 4,15.00,30.00,SummerDesignDay
9,1642993.8461538463
142,22372861.006968824
519,0.0
550,2068363.2095817293
2,1, 7,21, 0, 4,30.00,45.00,SummerDesignDay
9,1642993.8461538463
142,20331165.72303732
519,0.0
550,2078857.2805046468
2,1, 7,21, 0, 4,45.00,60.00,SummerDesignDay
9,1642993.8461538463
142,22373469.986435437
519,0.0
550,2087564.8818079537
2,1, 7,21, 0, 5, 0.00,15.00,SummerDesignDay
9,1642993.8461538463
142,20331725.207938456
519,0.0
550,2097609.4509574829
2,1, 7,21, 0, 5,15.00,30.00,SummerDesignDay
9,1642993.8461538463
142,22374064.466397223
519,0.0
550,2105980.6765213685
2,1, 7,21, 0, 5,30.00,45.00,SummerDesignDay
9,1642993.8461538463
142,20332271.389005294
519,0.0
550,2136943.19098941
2,1, 7,21, 0, 5,45.00,60.00,SummerDesignDay
9,1642993.8461538463
142,22374644.82936893
519,0.0
550,2178325.076829369
2,1, 7,21, 0, 6, 0.00,15.00,SummerDesignDay
9,1642993.8461538463
142,20332804.61644504
519,0.0
550,2235468.424076381
2,1, 7,21, 0, 6,15.00,30.00,SummerDesignDay
9,1642993.8461538463
142,22375211.446121646
519,0.0
550,2300846.579571977
2,1, 7,21, 0, 6,30.00,45.00,SummerDesignDay
9,1642993.8461538463
142,20333325.229744566
519,0.0
550,2366465.79045712
2,1, 7,21, 0, 6,45.00,60.00,SummerDesignDay
9,1642993.8461538463
142,22375764.67611226
519,0.0
550,2432976.9689407169
2,1, 7,21, 0, 7, 0.00,15.00,SummerDesignDay
9,1642993.8461538463
142,20336239.116781795
519,0.0
550,8700516.876530268
2,1, 7,21, 0, 7,15.00,30.00,SummerDesignDay
9,1642993.8461538463
142,22377719.91774293
519,0.0
550,4147088.328107839
2,1, 7,21, 0, 7,30.00,45.00,SummerDesignDay
9,1642993.8461538463
142,21056442.874129394
519,0.0
550,6191250.707673794
2,1, 7,21, 0, 7,45.00,60.00,SummerDesignDay
9,1642993.8461538463
142,21650836.10846122
519,0.0
550,5398327.595025879
2,1, 7,21, 0, 8, 0.00,15.00,SummerDesignDay
9,1642993.8461538463
142,22369327.777392046
519,0.0
550,5286829.03063079
2,1, 7,21, 0, 8,15.00,30.00,SummerDesignDay
9,1642993.8461538463
142,20328044.964660046
519,0.0
550,5272310.051400371
2,1, 7,21, 0, 8,30.00,45.00,SummerDesignDay
9,1642993.8461538463
142,22370348.350629935
519,0.0
550,5297751.468472104
2,1, 7,21, 0, 8,45.00,60.00,SummerDesignDay
9,1642993.8461538463
142,20328982.022921757
519,0.0
550,5348775.547434095
2,1, 7,21, 0, 9, 0.00,15.00,SummerDesignDay
9,1642993.8461538463
142,22371343.448424255
519,0.0
550,5425425.809063484
2,1, 7,21, 0, 9,15.00,30.00,SummerDesignDay
9,1642993.8461538463
142,20329895.73874794
519,0.0
550,5520417.180570971
2,1, 7,21, 0, 9,30.00,45.00,SummerDesignDay
9,1642993.8461538463
142,22372313.811166217
519,0.0
550,5632332.390398215
2,1, 7,21, 0, 9,45.00,60.00,SummerDesignDay
9,1642993.8461538463
142,20330786.78836037
519,0.0
550,5762641.624981462
2,1, 7,21, 0,10, 0.00,15.00,SummerDesignDay
9,1642993.8461538463
142,22373260.153028359
519,0.0
550,5892846.739838798
2,1, 7,21, 0,10,15.00,30.00,SummerDesignDay
9,1642993.8461538463
142,20331655.82413232
519,0.0
550,6030791.517623503
2,1, 7,21, 0,10,30.00,45.00,SummerDesignDay
9,1642993.8461538463
142,22374183.16310401
519,0.0
550,6174574.562452724
2,1, 7,21, 0,10,45.00,60.00,SummerDesignDay
9,1642993.8461538463
142,20332503.475623877
519,0.0
550,6321825.7465361519
2,1, 7,21, 0,11, 0.00,15.00,SummerDesignDay
9,1642993.8461538463
142,22375083.5064906
519,0.0
550,6462818.194145431
2,1, 7,21, 0,11,15.00,30.00,SummerDesignDay
9,1642993.8461538463
142,20333330.350558379
519,0.0
550,6601918.259633928
2,1, 7,21, 0,11,30.00,45.00,SummerDesignDay
9,1642993.8461538463
142,22375961.825314009
519,0.0
550,6736092.97359548
2,1, 7,21, 0,11,45.00,60.00,SummerDesignDay
9,1642993.8461538463
142,20334137.03575115
519,0.0
550,6864401.21007464
2,1, 7,21, 0,12, 0.00,15.00,SummerDesignDay
9,1642993.8461538463
142,22376818.73969971
519,0.0
550,6969462.44587112
2,1, 7,21, 0,12,15.00,30.00,SummerDesignDay
9,1642993.8461538463
142,20334924.09799323
519,0.0
550,7065954.284632885
2,1, 7,21, 0,12,30.00,45.00,SummerDesignDay
9,1642993.8461538463
142,22377654.848698036
519,0.0
550,7151450.812668768
2,1, 7,21, 0,12,45.00,60.00,SummerDesignDay
9,1642993.8461538463
142,20958162.280254488
519,0.0
550,7224945.08138702
2,1, 7,21, 0,13, 0.00,15.00,SummerDesignDay
9,1642993.8461538463
142,21749921.769705405
519,0.0
550,7278103.456289749
2,1, 7,21, 0,13,15.00,30.00,SummerDesignDay
9,1642993.8461538463
142,22292476.205929705
519,0.0
550,7317148.202940759
2,1, 7,21, 0,13,30.00,45.00,SummerDesignDay
9,1642993.8461538463
142,20405392.71084769
519,0.0
550,7339973.641928237
2,1, 7,21, 0,13,45.00,60.00,SummerDesignDay
9,1642993.8461538463
142,22370267.126080675
519,0.0
550,7347974.276364777
2,1, 7,21, 0,14, 0.00,15.00,SummerDesignDay
9,1642993.8461538463
142,20328907.44325645
519,0.0
550,7330662.758743748
2,1, 7,21, 0,14,15.00,30.00,SummerDesignDay
9,1642993.8461538463
142,22371264.247420245
519,0.0
550,7297777.954206922
2,1, 7,21, 0,14,30.00,45.00,SummerDesignDay
9,1642993.8461538463
142,20329823.013283198
519,0.0
550,7249941.001063183
2,1, 7,21, 0,14,45.00,60.00,SummerDesignDay
9,1642993.8461538463
142,22372236.575076347
519,0.0
550,7188467.050258034
2,1, 7,21, 0,15, 0.00,15.00,SummerDesignDay
9,1642993.8461538463
142,20330715.863542595
519,0.0
550,7100089.81325913
2,1, 7,21, 0,15,15.00,30.00,SummerDesignDay
9,1642993.8461538463
142,22373184.82528879
519,0.0
550,7002115.22947317
2,1, 7,21, 0,15,30.00,45.00,SummerDesignDay
9,1642993.8461538463
142,20331586.6482901
519,0.0
550,6896958.015544515
2,1, 7,21, 0,15,45.00,60.00,SummerDesignDay
9,1642993.8461538463
142,22374109.68913101
519,0.0
550,6787160.280801217
2,1, 7,21, 0,16, 0.00,15.00,SummerDesignDay
9,1642993.8461538463
142,20332435.998885339
519,0.0
550,6651367.897718564
2,1, 7,21, 0,16,15.00,30.00,SummerDesignDay
9,1642993.8461538463
142,22375011.83359339
519,0.0
550,6521876.008752306
2,1, 7,21, 0,16,30.00,45.00,SummerDesignDay
9,1642993.8461538463
142,20333264.5247746
519,0.0
550,6399645.077706203
2,1, 7,21, 0,16,45.00,60.00,SummerDesignDay
9,1642993.8461538463
142,22375891.90261553
519,0.0
550,6285762.316384676
2,1, 7,21, 0,17, 0.00,15.00,SummerDesignDay
9,1642993.8461538463
142,20334072.814424419
519,0.0
550,6177766.74527741
2,1, 7,21, 0,17,15.00,30.00,SummerDesignDay
9,1642993.8461538463
142,22376750.5180585
519,0.0
550,6088439.765199176
2,1, 7,21, 0,17,30.00,45.00,SummerDesignDay
9,1642993.8461538463
142,20334861.436205545
519,0.0
550,6002797.894568373
2,1, 7,21, 0,17,45.00,60.00,SummerDesignDay
9,1642993.8461538463
142,22377588.280638044
519,0.0
550,5916686.277055338
2,1, 7,21, 0,18, 0.00,15.00,SummerDesignDay
9,1642993.8461538463
142,20857634.119177808
519,0.0
550,5825021.416531441
2,1, 7,21, 0,18,15.00,30.00,SummerDesignDay
9,1642993.8461538463
142,21851282.08353631
519,0.0
550,5721208.148051556
2,1, 7,21, 0,18,30.00,45.00,SummerDesignDay
9,1642993.8461538463
142,22177895.327035279
519,0.0
550,5627187.335237228
2,1, 7,21, 0,18,45.00,60.00,SummerDesignDay
9,1642993.8461538463
142,20520790.2653126
519,0.0
550,5533591.142430741
2,1, 7,21, 0,19, 0.00,15.00,SummerDesignDay
9,1642993.8461538463
142,22370180.130633329
519,0.0
550,5424922.496893107
2,1, 7,21, 0,19,15.00,30.00,SummerDesignDay
9,1642993.8461538463
142,20328827.565156104
519,0.0
550,5315663.987380046
2,1, 7,21, 0,19,30.00,45.00,SummerDesignDay
9,1642993.8461538463
142,22371179.420049937
519,0.0
550,5203880.539159689
2,1, 7,21, 0,19,45.00,60.00,SummerDesignDay
9,1642993.8461538463
142,20329745.121803516
519,0.0
550,5094075.6258274209
2,1, 7,21, 0,20, 0.00,15.00,SummerDesignDay
9,1642993.8461538463
142,22372153.852930204
519,0.0
550,5002372.119708873
2,1, 7,21, 0,20,15.00,30.00,SummerDesignDay
9,1642993.8461538463
142,20330639.90127569
519,0.0
550,4917200.928479249
2,1, 7,21, 0,20,30.00,45.00,SummerDesignDay
9,1642993.8461538463
142,22373104.14773221
519,0.0
550,4849108.966775286
2,1, 7,21, 0,20,45.00,60.00,SummerDesignDay
9,1642993.8461538463
142,20331512.559845345
519,0.0
550,4784911.336347123
2,1, 7,21, 0,21, 0.00,15.00,SummerDesignDay
9,1642993.8461538463
142,22374030.997652238
519,0.0
550,4729671.92135095
2,1, 7,21, 0,21,15.00,30.00,SummerDesignDay
9,1642993.8461538463
142,20332363.73080228
519,0.0
550,4676428.840453646
2,1, 7,21, 0,21,30.00,45.00,SummerDesignDay
9,1642993.8461538463
142,22374935.071711884
519,0.0
550,4625008.494152795
2,1, 7,21, 0,21,45.00,60.00,SummerDesignDay
9,1642993.8461538463
142,20333194.025442285
519,0.0
550,4576167.091842369
2,1, 7,21, 0,22, 0.00,15.00,SummerDesignDay
9,1642993.8461538463
142,22375817.01579453
519,0.0
550,4528599.44435339
2,1, 7,21, 0,22,15.00,30.00,SummerDesignDay
9,1642993.8461538463
142,20334004.034000737
519,0.0
550,4482886.372310928
2,1, 7,21, 0,22,30.00,45.00,SummerDesignDay
9,1642993.8461538463
142,22376677.45362561
519,0.0
550,4438304.319887541
2,1, 7,21, 0,22,45.00,60.00,SummerDesignDay
9,1642993.8461538463
142,20334794.326546756
519,0.0
550,4395474.725432211
2,1, 7,21, 0,23, 0.00,15.00,SummerDesignDay
9,1642993.8461538463
142,22372220.909053185
519,0.0
550,0.0
2,1, 7,21, 0,23,15.00,30.00,SummerDesignDay
9,1642993.8461538463
142,20560840.93273273
519,0.0
550,673954.5140203842
2,1, 7,21, 0,23,30.00,45.00,SummerDesignDay
9,1642993.8461538463
142,22148033.84464365
519,0.0
550,1318042.3362815318
2,1, 7,21, 0,23,45.00,60.00,SummerDesignDay
9,1642993.8461538463
142,21392594.449770817
519,0.0
550,1422541.353857889
2,1, 7,21, 0,24, 0.00,15.00,SummerDesignDay
9,1642993.8461538463
142,21309654.09737577
519,0.0
550,1478397.4664920769
2,1, 7,21, 0,24,15.00,30.00,SummerDesignDay
9,1642993.8461538463
142,22340394.783991323
519,0.0
550,1579388.4700973363
2,1, 7,21, 0,24,30.00,45.00,SummerDesignDay
9,1642993.8461538463
142,20354802.34170153
519,0.0
550,1627063.3482879087
2,1, 7,21, 0,24,45.00,60.00,SummerDesignDay
9,1642993.8461538463
142,22368858.556604294
519,0.0
550,1698562.4990119239
1,CHICAGO OHARE INTL AP ANN CLG .4% CONDNS DP=>MDB,  41.78, -87.75,  -6.00, 186.00
2,1, 7,21, 0, 1, 0.00,15.00,SummerDesignDay
9,1642993.8461538463
142,20326844.953121526
519,0.0
550,1070235.7762641544
2,1, 7,21, 0, 1,15.00,30.00,SummerDesignDay
9,1642993.8461538463
142,22368879.62090142
519,0.0
550,1091371.4463934596
2,1, 7,21, 0, 1,30.00,45.00,SummerDesignDay
9,1642993.8461538463
142,20327508.362777264
519,0.0
550,1103476.9689966979
2,1, 7,21, 0, 1,45.00,60.00,SummerDesignDay
9,1642993.8461538463
142,22369584.34788246
519,0.0
550,1110612.2321921606
2,1, 7,21, 0, 2, 0.00,15.00,SummerDesignDay
9,1642993.8461538463
142,20328155.679796988
519,0.0
550,1147551.494873846
2,1, 7,21, 0, 2,15.00,30.00,SummerDesignDay
9,1642993.8461538463
142,22370272.006660079
519,0.0
550,1170884.4615815958
2,1, 7,21, 0, 2,30.00,45.00,SummerDesignDay
9,1642993.8461538463
142,20328787.34212972
519,0.0
550,1188311.5555731962
2,1, 7,21, 0, 2,45.00,60.00,SummerDesignDay
9,1642993.8461538463
142,22370943.06053366
519,0.0
550,1202265.3212071299
2,1, 7,21, 0, 3, 0.00,15.00,SummerDesignDay
9,1642993.8461538463
142,20329403.773671055
519,0.0
550,1215430.52654863
2,1, 7,21, 0, 3,15.00,30.00,SummerDesignDay
9,1642993.8461538463
142,22371597.95799053
519,0.0
550,1226135.5436857914
2,1, 7,21, 0, 3,30.00,45.00,SummerDesignDay
9,1642993.8461538463
142,20330005.38481322
519,0.0
550,1234386.8782083733
2,1, 7,21, 0, 3,45.00,60.00,SummerDesignDay
9,1642993.8461538463
142,22372237.133283426
519,0.0
550,1240861.3487452758
2,1, 7,21, 0, 4, 0.00,15.00,SummerDesignDay
9,1642993.8461538463
142,20330592.57296251
519,0.0
550,1245527.71743601
2,1, 7,21, 0, 4,15.00,30.00,SummerDesignDay
9,1642993.8461538463
142,22372861.006968824
519,0.0
550,1248687.4383544815
2,1, 7,21, 0, 4,30.00,45.00,SummerDesignDay
9,1642993.8461538463
142,20331165.72303732
519,0.0
550,1256843.2424805549
2,1, 7,21, 0, 4,45.00,60.00,SummerDesignDay
9,1642993.8461538463
142,22373469.986435437
519,0.0
550,1266585.483910544
2,1, 7,21, 0, 5, 0.00,15.00,SummerDesignDay
9,1642993.8461538463
142,20331725.207938456
519,0.0
550,1277639.0902240314
2,1, 7,21, 0, 5,15.00,30.00,SummerDesignDay
9,1642993.8461538463
142,22374064.466397223
519,0.0
550,1286944.8452458354
2,1, 7,21, 0, 5,30.00,45.00,SummerDesignDay
9,1642993.8461538463
142,20332271.389005294
519,0.0
550,1318769.9934663149
2,1, 7,21, 0, 5,45.00,60.00,SummerDesignDay
9,1642993.8461538463
142,22374644.82936893
519,0.0
550,1360951.8232668967
2,1, 7,21, 0, 6, 0.00,15.00,SummerDesignDay
9,1642993.8461538463
142,20332804.61644504
519,0.0
550,1419093.6386419484
2,1, 7,21, 0, 6,15.00,30.00,SummerDesignDay
9,1642993.8461538463
142,22375211.446121646
519,0.0
550,1485403.6736980677
2,1, 7,21, 0, 6,30.00,45.00,SummerDesignDay
9,1642993.8461538463
142,20333325.229744566
519,0.0
550,1551891.1989239688
2,1, 7,21, 0, 6,45.00,60.00,SummerDesignDay
9,1642993.8461538463
142,22375764.67611226
519,0.0
550,1619215.5735761047
2,1, 7,21, 0, 7, 0.00,15.00,SummerDesignDay
9,1642993.8461538463
142,20336243.96454528
519,0.0
550,7791890.409361584
2,1, 7,21, 0, 7,15.00,30.00,SummerDesignDay
9,1642993.8461538463
142,22377720.751293258
519,0.0
550,3206752.883440336
2,1, 7,21, 0, 7,30.00,45.00,SummerDesignDay
9,1642993.8461538463
142,21057701.97835356
519,0.0
550,5343549.680245796
2,1, 7,21, 0, 7,45.00,60.00,SummerDesignDay
9,1642993.8461538463
142,21649566.74464755
519,0.0
550,4740370.353956277
2,1, 7,21, 0, 8, 0.00,15.00,SummerDesignDay
9,1642993.8461538463
142,22369328.735273787
519,0.0
550,4704260.80615934
2,1, 7,21, 0, 8,15.00,30.00,SummerDesignDay
9,1642993.8461538463
142,20328045.844133788
519,0.0
550,4685129.689191598
2,1, 7,21, 0, 8,30.00,45.00,SummerDesignDay
9,1642993.8461538463
142,22370349.28455033
519,0.0
550,4683397.504766978
2,1, 7,21, 0, 8,45.00,60.00,SummerDesignDay
9,1642993.8461538463
142,20328982.88044123
519,0.0
550,4754558.100666947
2,1, 7,21, 0, 9, 0.00,15.00,SummerDesignDay
9,1642993.8461538463
142,22371344.35908221
519,0.0
550,4856613.366440256
2,1, 7,21, 0, 9,15.00,30.00,SummerDesignDay
9,1642993.8461538463
142,20329896.574951337
519,0.0
550,4975634.53633853
2,1, 7,21, 0, 9,30.00,45.00,SummerDesignDay
9,1642993.8461538463
142,22372314.699235336
519,0.0
550,5119237.935165099
2,1, 7,21, 0, 9,45.00,60.00,SummerDesignDay
9,1642993.8461538463
142,20330787.603862898
519,0.0
550,5288438.869478753
2,1, 7,21, 0,10, 0.00,15.00,SummerDesignDay
9,1642993.8461538463
142,22373261.019158324
519,0.0
550,5463372.408319971
2,1, 7,21, 0,10,15.00,30.00,SummerDesignDay
9,1642993.8461538463
142,20331656.61952892
519,0.0
550,5651105.463208763
2,1, 7,21, 0,10,30.00,45.00,SummerDesignDay
9,1642993.8461538463
142,22374184.007922688
519,0.0
550,5848524.102742374
2,1, 7,21, 0,10,45.00,60.00,SummerDesignDay
9,1642993.8461538463
142,20332504.25148739
519,0.0
550,6052521.73308609
2,1, 7,21, 0,11, 0.00,15.00,SummerDesignDay
9,1642993.8461538463
142,22375084.330603593
519,0.0
550,6251696.995989182
2,1, 7,21, 0,11,15.00,30.00,SummerDesignDay
9,1642993.8461538463
142,20333331.10744139
519,0.0
550,6449546.498698647
2,1, 7,21, 0,11,30.00,45.00,SummerDesignDay
9,1642993.8461538463
142,22375962.62930584
519,0.0
550,6641792.844987739
2,1, 7,21, 0,11,45.00,60.00,SummerDesignDay
9,1642993.8461538463
142,20334137.774188553
519,0.0
550,6826756.591509749
2,1, 7,21, 0,12, 0.00,15.00,SummerDesignDay
9,1642993.8461538463
142,22376819.524135736
519,0.0
550,6983969.199122235
2,1, 7,21, 0,12,15.00,30.00,SummerDesignDay
9,1642993.8461538463
142,20334924.818500956
519,0.0
550,7128159.52481655
2,1, 7,21, 0,12,30.00,45.00,SummerDesignDay
9,1642993.8461538463
142,22377655.61412301
519,0.0
550,7256124.746551196
2,1, 7,21, 0,12,45.00,60.00,SummerDesignDay
9,1642993.8461538463
142,20959318.288761058
519,0.0
550,7367003.515886424
2,1, 7,21, 0,13, 0.00,15.00,SummerDesignDay
9,1642993.8461538463
142,21748756.243006689
519,0.0
550,7451308.256354958
2,1, 7,21, 0,13,15.00,30.00,SummerDesignDay
9,1642993.8461538463
142,22293793.821975046
519,0.0
550,7515485.422026758
2,1, 7,21, 0,13,30.00,45.00,SummerDesignDay
9,1642993.8461538463
142,20404065.76954512
519,0.0
550,7556912.104511202
2,1, 7,21, 0,13,45.00,60.00,SummerDesignDay
9,1642993.8461538463
142,22370268.126382036
519,0.0
550,7577218.271659229
2,1, 7,21, 0,14, 0.00,15.00,SummerDesignDay
9,1642993.8461538463
142,20328908.361721849
519,0.0
550,7524073.520388793
2,1, 7,21, 0,14,15.00,30.00,SummerDesignDay
9,1642993.8461538463
142,22371265.222796706
519,0.0
550,7391122.499666209
2,1, 7,21, 0,14,30.00,45.00,SummerDesignDay
9,1642993.8461538463
142,20329823.908910254
519,0.0
550,7290348.434253578
2,1, 7,21, 0,14,45.00,60.00,SummerDesignDay
9,1642993.8461538463
142,22372237.52624984
519,0.0
550,7211544.092824301
2,1, 7,21, 0,15, 0.00,15.00,SummerDesignDay
9,1642993.8461538463
142,20330716.736990666
519,0.0
550,7116850.595349854
2,1, 7,21, 0,15,15.00,30.00,SummerDesignDay
9,1642993.8461538463
142,22373185.752957588
519,0.0
550,7014178.955070999
2,1, 7,21, 0,15,30.00,45.00,SummerDesignDay
9,1642993.8461538463
142,20331587.50019559
519,0.0
550,6903187.1763769439
2,1, 7,21, 0,15,45.00,60.00,SummerDesignDay
9,1642993.8461538463
142,22374110.593966247
519,0.0
550,6787438.607286759
2,1, 7,21, 0,16, 0.00,15.00,SummerDesignDay
9,1642993.8461538463
142,20332436.82986289
519,0.0
550,6642833.5985205429
2,1, 7,21, 0,16,15.00,30.00,SummerDesignDay
9,1642993.8461538463
142,22375012.716245239
519,0.0
550,6506771.194320006
2,1, 7,21, 0,16,30.00,45.00,SummerDesignDay
9,1642993.8461538463
142,20333265.335417577
519,0.0
550,6345759.177008265
2,1, 7,21, 0,16,45.00,60.00,SummerDesignDay
9,1642993.8461538463
142,22375892.763710407
519,0.0
550,6186782.997195065
2,1, 7,21, 0,17, 0.00,15.00,SummerDesignDay
9,1642993.8461538463
142,20334073.605305267
519,0.0
550,6035570.853774197
2,1, 7,21, 0,17,15.00,30.00,SummerDesignDay
9,1642993.8461538463
142,22376751.358202604
519,0.0
550,5906794.539480857
2,1, 7,21, 0,17,30.00,45.00,SummerDesignDay
9,1642993.8461538463
142,20334862.207878319
519,0.0
550,5784634.617317113
2,1, 7,21, 0,17,45.00,60.00,SummerDesignDay
9,1642993.8461538463
142,22377589.10041444
519,0.0
550,5664317.395177437
2,1, 7,21, 0,18, 0.00,15.00,SummerDesignDay
9,1642993.8461538463
142,20858872.008189236
519,0.0
550,5539165.621638204
2,1, 7,21, 0,18,15.00,30.00,SummerDesignDay
9,1642993.8461538463
142,21850033.89416276
519,0.0
550,5400892.819930042
2,1, 7,21, 0,18,30.00,45.00,SummerDesignDay
9,1642993.8461538463
142,22179306.24825594
519,0.0
550,5272317.693303657
2,1, 7,21, 0,18,45.00,60.00,SummerDesignDay
9,1642993.8461538463
142,20519369.218672288
519,0.0
550,5143968.226716438
2,1, 7,21, 0,19, 0.00,15.00,SummerDesignDay
9,1642993.8461538463
142,22370181.201977403
519,0.0
550,4999304.965028607
2,1, 7,21, 0,19,15.00,30.00,SummerDesignDay
9,1642993.8461538463
142,20328828.5488474
519,0.0
550,4853334.994517469
2,1, 7,21, 0,19,30.00,45.00,SummerDesignDay
9,1642993.8461538463
142,22371180.464688757
519,0.0
550,4703769.059561013
2,1, 7,21, 0,19,45.00,60.00,SummerDesignDay
9,1642993.8461538463
142,20329746.081025997
519,0.0
550,4555741.893104525
2,1, 7,21, 0,20, 0.00,15.00,SummerDesignDay
9,1642993.8461538463
142,22372154.87163836
519,0.0
550,4445799.280970052
2,1, 7,21, 0,20,15.00,30.00,SummerDesignDay
9,1642993.8461538463
142,20330640.83673537
519,0.0
550,4455034.380938679
2,1, 7,21, 0,20,30.00,45.00,SummerDesignDay
9,1642993.8461538463
142,22373105.14125756
519,0.0
550,4447620.688795565
2,1, 7,21, 0,20,45.00,60.00,SummerDesignDay
9,1642993.8461538463
142,20331513.472225448
519,0.0
550,4409758.057067602
2,1, 7,21, 0,21, 0.00,15.00,SummerDesignDay
9,1642993.8461538463
142,22374031.966715699
519,0.0
550,4354280.717618546
2,1, 7,21, 0,21,15.00,30.00,SummerDesignDay
9,1642993.8461538463
142,20332364.620761478
519,0.0
550,4280657.040170319
2,1, 7,21, 0,21,30.00,45.00,SummerDesignDay
9,1642993.8461538463
142,22374936.017008835
519,0.0
550,4197583.488352498
2,1, 7,21, 0,21,45.00,60.00,SummerDesignDay
9,1642993.8461538463
142,20333194.89361604
519,0.0
550,4112533.5088860557
2,1, 7,21, 0,22, 0.00,15.00,SummerDesignDay
9,1642993.8461538463
142,22375817.93799702
519,0.0
550,4027471.0997216298
2,1, 7,21, 0,22,15.00,30.00,SummerDesignDay
9,1642993.8461538463
142,20334004.881003996
519,0.0
550,3944295.310569688
2,1, 7,21, 0,22,30.00,45.00,SummerDesignDay
9,1642993.8461538463
142,22376678.353382708
519,0.0
550,3862538.706376569
2,1, 7,21, 0,22,45.00,60.00,SummerDesignDay
9,1642993.8461538463
142,20334795.152971336
519,0.0
550,3782962.6039444378
2,1, 7,21, 0,23, 0.00,15.00,SummerDesignDay
9,1642993.8461538463
142,22366647.113345908
519,0.0
550,0.0
2,1, 7,21, 0,23,15.00,30.00,SummerDesignDay
9,1642993.8461538463
142,20725890.78892537
519,0.0
550,0.0
2,1, 7,21, 0,23,30.00,45.00,SummerDesignDay
9,1642993.8461538463
142,21977115.90460828
519,0.0
550,104165.01140529334
2,1, 7,21, 0,23,45.00,60.00,SummerDesignDay
9,1642993.8461538463
142,21708951.975871676
519,0.0
550,581330.0621720726
2,1, 7,21, 0,24, 0.00,15.00,SummerDesignDay
9,1642993.8461538463
142,20990857.086366975
519,0.0
550,933208.6409603264
2,1, 7,21, 0,24,15.00,30.00,SummerDesignDay
9,1642993.8461538463
142,22368379.195567695
519,0.0
550,895298.7320081892
2,1, 7,21, 0,24,30.00,45.00,SummerDesignDay
9,1642993.8461538463
142,20327048.718469714
519,0.0
550,1001576.4597848955
2,1, 7,21, 0,24,45.00,60.00,SummerDesignDay
9,1642993.8461538463
142,22369096.07385645
519,0.0
550,1047070.6187373595
1,CHICAGO OHARE INTL AP ANN CLG .4% CONDNS ENTH=>MDB,  41.78, -87.75,  -6.00, 186.00
2,1, 7,21, 0, 1, 0.00,15.00,SummerDesignDay
9,1642993.8461538463
142,20326844.953121526
519,0.0
550,1675029.412615258
2,1, 7,21, 0, 1,15.00,30.00,SummerDesignDay
9,1642993.8461538463
142,22368879.62090143
519,0.0
550,1726869.4076451597
2,1, 7,21, 0, 1,30.00,45.00,SummerDesignDay
9,1642993.8461538463
142,20327508.36277728
519,0.0
550,1755853.35241536
2,1, 7,21, 0, 1,45.00,60.00,SummerDesignDay
9,1642993.8461538463
142,22369584.347882488
519,0.0
550,1775258.0397177078
2,1, 7,21, 0, 2, 0.00,15.00,SummerDesignDay
9,1642993.8461538463
142,20328155.67979701
519,0.0
550,1793462.8213729026
2,1, 7,21, 0, 2,15.00,30.00,SummerDesignDay
9,1642993.8461538463
142,22370272.00666012
519,0.0
550,1806606.1152662885
2,1, 7,21, 0, 2,30.00,45.00,SummerDesignDay
9,1642993.8461538463
142,20328787.34212973
519,0.0
550,1816046.3004514129
2,1, 7,21, 0, 2,45.00,60.00,SummerDesignDay
9,1642993.8461538463
142,22370943.06053286
519,0.0
550,1823112.671967485
2,1, 7,21, 0, 3, 0.00,15.00,SummerDesignDay
9,1642993.8461538463
142,20329403.773671077
519,0.0
550,1830526.4680616984
2,1, 7,21, 0, 3,15.00,30.00,SummerDesignDay
9,1642993.8461538463
142,22371597.957990558
519,0.0
550,1836365.4130727084
2,1, 7,21, 0, 3,30.00,45.00,SummerDesignDay
9,1642993.8461538463
142,20330005.384813239
519,0.0
550,1840445.672079749
2,1, 7,21, 0, 3,45.00,60.00,SummerDesignDay
9,1642993.8461538463
142,22372237.133283449
519,0.0
550,1843312.070116233
2,1, 7,21, 0, 4, 0.00,15.00,SummerDesignDay
9,1642993.8461538463
142,20330592.572962535
519,0.0
550,1844777.456382491
2,1, 7,21, 0, 4,15.00,30.00,SummerDesignDay
9,1642993.8461538463
142,22372861.006968839
519,0.0
550,1845044.7512389578
2,1, 7,21, 0, 4,30.00,45.00,SummerDesignDay
9,1642993.8461538463
142,20331165.723037345
519,0.0
550,1844140.586528608
2,1, 7,21, 0, 4,45.00,60.00,SummerDesignDay
9,1642993.8461538463
142,22373469.98643546
519,0.0
550,1842051.3412127938
2,1, 7,21, 0, 5, 0.00,15.00,SummerDesignDay
9,1642993.8461538463
142,20331725.207938479
519,0.0
550,1842040.1862115327
2,1, 7,21, 0, 5,15.00,30.00,SummerDesignDay
9,1642993.8461538463
142,22374064.46639724
519,0.0
550,1841095.5555511767
2,1, 7,21, 0, 5,30.00,45.00,SummerDesignDay
9,1642993.8461538463
142,20332271.389005308
519,0.0
550,1864611.2031309442
2,1, 7,21, 0, 5,45.00,60.00,SummerDesignDay
9,1642993.8461538463
142,22374644.829368947
519,0.0
550,1898681.1099764123
2,1, 7,21, 0, 6, 0.00,15.00,SummerDesignDay
9,1642993.8461538463
142,20332804.61644431
519,0.0
550,1947927.2123413888
2,1, 7,21, 0, 6,15.00,30.00,SummerDesignDay
9,1642993.8461538463
142,22375211.446121668
519,0.0
550,2005162.4959803825
2,1, 7,21, 0, 6,30.00,45.00,SummerDesignDay
9,1642993.8461538463
142,20333325.229744574
519,0.0
550,2062528.4195136412
2,1, 7,21, 0, 6,45.00,60.00,SummerDesignDay
9,1642993.8461538463
142,22375764.676112288
519,0.0
550,2120774.5759311278
2,1, 7,21, 0, 7, 0.00,15.00,SummerDesignDay
9,1642993.8461538463
142,20336241.21948144
519,0.0
550,8358607.760034034
2,1, 7,21, 0, 7,15.00,30.00,SummerDesignDay
9,1642993.8461538463
142,22377720.279924927
519,0.0
550,3743732.753664422
2,1, 7,21, 0, 7,30.00,45.00,SummerDesignDay
9,1642993.8461538463
142,21056989.96143287
519,0.0
550,5857659.096663777
2,1, 7,21, 0, 7,45.00,60.00,SummerDesignDay
9,1642993.8461538463
142,21650284.56314385
519,0.0
550,5262957.856325874
2,1, 7,21, 0, 8, 0.00,15.00,SummerDesignDay
9,1642993.8461538463
142,22369328.193596685
519,0.0
550,5224128.02694041
2,1, 7,21, 0, 8,15.00,30.00,SummerDesignDay
9,1642993.8461538463
142,20328045.346796376
519,0.0
550,5213234.41754708
2,1, 7,21, 0, 8,30.00,45.00,SummerDesignDay
9,1642993.8461538463
142,22370348.756423247
519,0.0
550,5230146.362075971
2,1, 7,21, 0, 8,45.00,60.00,SummerDesignDay
9,1642993.8461538463
142,20328982.39551818
519,0.0
550,5282410.1452320939
2,1, 7,21, 0, 9, 0.00,15.00,SummerDesignDay
9,1642993.8461538463
142,22371343.844110013
519,0.0
550,5372593.432698009
2,1, 7,21, 0, 9,15.00,30.00,SummerDesignDay
9,1642993.8461538463
142,20329896.102082913
519,0.0
550,5490667.9237117129
2,1, 7,21, 0, 9,30.00,45.00,SummerDesignDay
9,1642993.8461538463
142,22372314.197037165
519,0.0
550,5633361.112977929
2,1, 7,21, 0, 9,45.00,60.00,SummerDesignDay
9,1642993.8461538463
142,20330787.14270081
519,0.0
550,5801684.904189341
2,1, 7,21, 0,10, 0.00,15.00,SummerDesignDay
9,1642993.8461538463
142,22373260.52936681
519,0.0
550,6062710.680731003
2,1, 7,21, 0,10,15.00,30.00,SummerDesignDay
9,1642993.8461538463
142,20331656.169736457
519,0.0
550,6413851.239162399
2,1, 7,21, 0,10,30.00,45.00,SummerDesignDay
9,1642993.8461538463
142,22374183.53018241
519,0.0
550,6726651.427369838
2,1, 7,21, 0,10,45.00,60.00,SummerDesignDay
9,1642993.8461538463
142,20332503.812740927
519,0.0
550,7002514.341444878
2,1, 7,21, 0,11, 0.00,15.00,SummerDesignDay
9,1642993.8461538463
142,22375083.864572053
519,0.0
550,7252250.166849018
2,1, 7,21, 0,11,15.00,30.00,SummerDesignDay
9,1642993.8461538463
142,20333330.67942831
519,0.0
550,7493015.9292465359
2,1, 7,21, 0,11,30.00,45.00,SummerDesignDay
9,1642993.8461538463
142,22375962.174652768
519,0.0
550,7726634.766968415
2,1, 7,21, 0,11,45.00,60.00,SummerDesignDay
9,1642993.8461538463
142,20334137.356605878
519,0.0
550,7954107.9542846069
2,1, 7,21, 0,12, 0.00,15.00,SummerDesignDay
9,1642993.8461538463
142,22376819.08054169
519,0.0
550,8154673.328318354
2,1, 7,21, 0,12,15.00,30.00,SummerDesignDay
9,1642993.8461538463
142,20334924.4110578
519,0.0
550,8334191.604243769
2,1, 7,21, 0,12,30.00,45.00,SummerDesignDay
9,1642993.8461538463
142,22377655.18127956
519,0.0
550,8490140.478426595
2,1, 7,21, 0,12,45.00,60.00,SummerDesignDay
9,1642993.8461538463
142,20958664.57184602
519,0.0
550,8628179.287634878
2,1, 7,21, 0,13, 0.00,15.00,SummerDesignDay
9,1642993.8461538463
142,21749415.342267898
519,0.0
550,8742833.631885559
2,1, 7,21, 0,13,15.00,30.00,SummerDesignDay
9,1642993.8461538463
142,22293048.716792428
519,0.0
550,8838234.870213531
2,1, 7,21, 0,13,30.00,45.00,SummerDesignDay
9,1642993.8461538463
142,20404816.147928124
519,0.0
550,8911867.319543902
2,1, 7,21, 0,13,45.00,60.00,SummerDesignDay
9,1642993.8461538463
142,22370267.56071665
519,0.0
550,8968120.574399382
2,1, 7,21, 0,14, 0.00,15.00,SummerDesignDay
9,1642993.8461538463
142,20328907.842334439
519,0.0
550,8995215.14073813
2,1, 7,21, 0,14,15.00,30.00,SummerDesignDay
9,1642993.8461538463
142,22371264.671226797
519,0.0
550,8997902.169451017
2,1, 7,21, 0,14,30.00,45.00,SummerDesignDay
9,1642993.8461538463
142,20329823.402437856
519,0.0