Program Version,EnergyPlus, Version 8.6.0-198c6a3cff, YMD=2017.03.30 13:46
1,5,Environment Title[],Latitude[deg],Longitude[deg],Time Zone[],Elevation[m]
2,6,Day of Simulation[],Month[],Day of Month[],DST Indicator[1=yes 0=no],Hour[],StartMinute[],EndMinute[],DayType
3,3,Cumulative Day of Simulation[],Month[],Day of Month[],DST Indicator[1=yes 0=no],DayType  ! When Daily Meters Requested
4,2,Cumulative Days of Simulation[],Month[]  ! When Monthly Meters Requested
5,1,Cumulative Days of Simulation[] ! When Run Period Meters Requested
9,1,Electricity:Facility [J] !TimeStep
342,1,Gas:Facility [J] !TimeStep
End of Data Dictionary
1,RUN PERIOD 1,  41.98, -87.92,  -6.00, 201.00
2,1, 1, 1, 0, 1, 0.00,10.00,Sunday
9,305682.4143501625
342,1807948.1516236037
2,1, 1, 1, 0, 1,10.00,20.00,Sunday
9,305682.4143501625
342,2032280.3462658635
2,1, 1, 1, 0, 1,20.00,30.00,Sunday
9,305682.4143501625
342,2246760.3718723708
2,1, 1, 1, 0, 1,30.00,40.00,Sunday
9,305682.4143501625
342,2476952.204066478
2,1, 1, 1, 0, 1,40.00,50.00,Sunday
9,305682.4143501625
342,2704209.7434236227
2,1, 1, 1, 0, 1,50.00,60.00,Sunday
9,305682.4143501625
342,2934921.2585947636
2,1, 1, 1, 0, 2, 0.00,10.00,Sunday
9,305682.4143501625
342,2929316.3390341277
2,1, 1, 1, 0, 2,10.00,20.00,Sunday
9,305682.4143501625
342,2922555.1601477346
2,1, 1, 1, 0, 2,20.00,30.00,Sunday
9,305682.4143501625
342,2915620.8015940578
2,1, 1, 1, 0, 2,30.00,40.00,Sunday
9,305682.4143501625
342,2908021.569882794
2,1, 1, 1, 0, 2,40.00,50.00,Sunday
9,305682.4143501625
342,2899498.4521496195
2,1, 1, 1, 0, 2,50.00,60.00,Sunday
9,305682.4143501625
342,2890447.753162923
2,1, 1, 1, 0, 3, 0.00,10.00,Sunday
9,305682.4143501625
342,2878830.595210993
2,1, 1, 1, 0, 3,10.00,20.00,Sunday
9,305682.4143501625
342,2866728.0937075528
2,1, 1, 1, 0, 3,20.00,30.00,Sunday
9,305682.4143501625
342,2854459.6785212408
2,1, 1, 1, 0, 3,30.00,40.00,Sunday
9,305682.4143501625
342,2842032.713691225
2,1, 1, 1, 0, 3,40.00,50.00,Sunday
9,305682.4143501625
342,2829413.798731265
2,1, 1, 1, 0, 3,50.00,60.00,Sunday
9,305682.4143501625
342,2816663.9718177977
2,1, 1, 1, 0, 4, 0.00,10.00,Sunday
9,305682.4143501625
342,2816753.7926652806
2,1, 1, 1, 0, 4,10.00,20.00,Sunday
9,305682.4143501625
342,2817121.4160326549
2,1, 1, 1, 0, 4,20.00,30.00,Sunday
9,305682.4143501625
342,2817582.1733135466
2,1, 1, 1, 0, 4,30.00,40.00,Sunday
9,305682.4143501625
342,2818076.3519239106
2,1, 1, 1, 0, 4,40.00,50.00,Sunday
9,305682.4143501625
342,2818611.6187709525
2,1, 1, 1, 0, 4,50.00,60.00,Sunday
9,305682.4143501625
342,2819161.782256007
2,1, 1, 1, 0, 5, 0.00,10.00,Sunday
9,305682.4143501625
342,2809318.8345007237
2,1, 1, 1, 0, 5,10.00,20.00,Sunday
9,305682.4143501625
342,2799174.267953055
2,1, 1, 1, 0, 5,20.00,30.00,Sunday
9,305682.4143501625
342,2788922.7369751746
2,1, 1, 1, 0, 5,30.00,40.00,Sunday
9,305682.4143501625
342,2778614.9495361705
2,1, 1, 1, 0, 5,40.00,50.00,Sunday
9,305682.4143501625
342,2768282.1702999637
2,1, 1, 1, 0, 5,50.00,60.00,Sunday
9,305682.4143501625
342,2757925.722722783
2,1, 1, 1, 0, 6, 0.00,10.00,Sunday
9,305682.4143501625
342,2757870.251126995
2,1, 1, 1, 0, 6,10.00,20.00,Sunday
9,305682.4143501625
342,2758082.1658130178
2,1, 1, 1, 0, 6,20.00,30.00,Sunday
9,305682.4143501625
342,2758381.834278358
2,1, 1, 1, 0, 6,30.00,40.00,Sunday
9,305682.4143501625
342,2758735.0809515679
2,1, 1, 1, 0, 6,40.00,50.00,Sunday
9,305682.4143501625
342,2759183.8446971958
2,1, 1, 1, 0, 6,50.00,60.00,Sunday
9,305682.4143501625
342,2759679.5378261718
2,1, 1, 1, 0, 7, 0.00,10.00,Sunday
9,305682.4143501625
342,2760311.4517603188
2,1, 1, 1, 0, 7,10.00,20.00,Sunday
9,305682.4143501625
342,2761078.3427135788
2,1, 1, 1, 0, 7,20.00,30.00,Sunday
9,305682.4143501625
342,2761894.0951493496
2,1, 1, 1, 0, 7,30.00,40.00,Sunday
9,305682.4143501625
342,2762741.393931057
2,1, 1, 1, 0, 7,40.00,50.00,Sunday
9,305682.4143501625
342,2763663.4239894088
2,1, 1, 1, 0, 7,50.00,60.00,Sunday
9,305682.4143501625
342,2764619.5854268849
2,1, 1, 1, 0, 8, 0.00,10.00,Sunday
9,305682.4143501625
342,2753298.496442462
2,1, 1, 1, 0, 8,10.00,20.00,Sunday
9,305682.4143501625
342,2741728.0281677555
2,1, 1, 1, 0, 8,20.00,30.00,Sunday
9,305682.4143501625
342,2671211.6596804966
2,1, 1, 1, 0, 8,30.00,40.00,Sunday
9,305682.4143501625
342,2497475.046778332
2,1, 1, 1, 0, 8,40.00,50.00,Sunday
9,305682.4143501625
342,2318119.894483399
2,1, 1, 1, 0, 8,50.00,60.00,Sunday
9,305682.4143501625
342,2117555.9851937259
2,1, 1, 1, 0, 9, 0.00,10.00,Sunday
9,305682.4143501625
342,1906836.0673303423
2,1, 1, 1, 0, 9,10.00,20.00,Sunday
9,305682.4143501625
342,1731691.4438726167
2,1, 1, 1, 0, 9,20.00,30.00,Sunday
9,305682.4143501625
342,1521882.6877356154
2,1, 1, 1, 0, 9,30.00,40.00,Sunday
9,305682.4143501625
342,1355616.0907354365
2,1, 1, 1, 0, 9,40.00,50.00,Sunday
9,305682.4143501625
342,1182776.6366004998
2,1, 1, 1, 0, 9,50.00,60.00,Sunday
9,305682.4143501625
342,1006256.7432838207
2,1, 1, 1, 0,10, 0.00,10.00,Sunday
9,305682.4143501625
342,806096.696780326
2,1, 1, 1, 0,10,10.00,20.00,Sunday
9,305682.4143501625
342,602778.8476057127
2,1, 1, 1, 0,10,20.00,30.00,Sunday
9,305682.4143501625
342,395865.59898949347
2,1, 1, 1, 0,10,30.00,40.00,Sunday
9,305682.4143501625
342,222021.4601531402
2,1, 1, 1, 0,10,40.00,50.00,Sunday
9,305682.4143501625
342,50197.129971552255
2,1, 1, 1, 0,10,50.00,60.00,Sunday
9,305682.4143501625
342,0.0
2,1, 1, 1, 0,11, 0.00,10.00,Sunday
9,305682.4143501625
342,0.0
2,1, 1, 1, 0,11,10.00,20.00,Sunday
9,305682.4143501625
342,0.0
2,1, 1, 1, 0,11,20.00,30.00,Sunday
9,305682.4143501625
342,0.0
2,1, 1, 1, 0,11,30.00,40.00,Sunday
9,305682.4143501625
342,0.0
2,1, 1, 1, 0,11,40.00,50.00,Sunday
9,305682.4143501625
342,0.0
2,1, 1, 1, 0,11,50.00,60.00,Sunday
9,305682.4143501625
342,0.0
2,1, 1, 1, 0,12, 0.00,10.00,Sunday
9,305682.4143501625
342,0.0
2,1, 1, 1, 0,12,10.00,20.00,Sunday
9,305682.4143501625
342,0.0
2,1, 1, 1, 0,12,20.00,30.00,Sunday
9,305682.4143501625
342,0.0
2,1, 1, 1, 0,12,30.00,40.00,Sunday
9,305682.4143501625
342,0.0
2,1, 1, 1, 0,12,40.00,50.00,Sunday
9,305682.4143501625
342,0.0
2,1, 1, 1, 0,12,50.00,60.00,Sunday
9,305682.4143501625
342,0.0
2,1, 1, 1, 0,13, 0.00,10.00,Sunday
9,305682.4143501625
342,0.0
2,1, 1, 1, 0,13,10.00,20.00,Sunday
9,305682.4143501625
342,0.0
2,1, 1, 1, 0,13,20.00,30.00,Sunday
9,305682.4143501625
342,0.0
2,1, 1, 1, 0,13,30.00,40.00,Sunday
9,305682.4143501625
342,0.0
2,1, 1, 1, 0,13,40.00,50.00,Sunday
9,305682.4143501625
342,0.0
2,1, 1, 1, 0,13,50.00,60.00,Sunday
9,305682.4143501625
342,0.0
2,1, 1, 1, 0,14, 0.00,10.00,Sunday
9,305682.4143501625
342,250727.8663661184
2,1, 1, 1, 0,14,10.00,20.00,Sunday
9,305682.4143501625
342,274896.4205420138
2,1, 1, 1, 0,14,20.00,30.00,Sunday
9,305682.4143501625
342,362153.55245217969
2,1, 1, 1, 0,14,30.00,40.00,Sunday
9,305682.4143501625
342,402474.5660790583
2,1, 1, 1, 0,14,40.00,50.00,Sunday
9,305682.4143501625
342,436427.3411203229
2,1, 1, 1, 0,14,50.00,60.00,Sunday
9,305682.4143501625
342,464595.15227207329
2,1, 1, 1, 0,15, 0.00,10.00,Sunday
9,305682.4143501625
342,514806.9663908622
2,1, 1, 1, 0,15,10.00,20.00,Sunday
9,305682.4143501625
342,521387.47206660176
2,1, 1, 1, 0,15,20.00,30.00,Sunday
9,305682.4143501625
342,565746.194643551
2,1, 1, 1, 0,15,30.00,40.00,Sunday
9,305682.4143501625
342,633350.870788982
2,1, 1, 1, 0,15,40.00,50.00,Sunday
9,305682.4143501625
342,698149.0352270068
2,1, 1, 1, 0,15,50.00,60.00,Sunday
9,305682.4143501625
342,763167.7753460996
2,1, 1, 1, 0,16, 0.00,10.00,Sunday
9,305682.4143501625
342,826718.9792998799
2,1, 1, 1, 0,16,10.00,20.00,Sunday
9,305682.4143501625
342,919347.0433862037
2,1, 1, 1, 0,16,20.00,30.00,Sunday
9,305682.4143501625
342,981940.4880263094
2,1, 1, 1, 0,16,30.00,40.00,Sunday
9,305682.4143501625
342,1031059.3437889088
2,1, 1, 1, 0,16,40.00,50.00,Sunday
9,305682.4143501625
342,1078855.4736645718
2,1, 1, 1, 0,16,50.00,60.00,Sunday
9,305682.4143501625
342,1127678.0082249069
2,1, 1, 1, 0,17, 0.00,10.00,Sunday
9,305682.4143501625
342,1176375.0123836846
2,1, 1, 1, 0,17,10.00,20.00,Sunday
9,305682.4143501625
342,1222281.779404638
2,1, 1, 1, 0,17,20.00,30.00,Sunday
9,305682.4143501625
342,1275552.9876444862
2,1, 1, 1, 0,17,30.00,40.00,Sunday
9,305682.4143501625
342,1312703.9516555358
2,1, 1, 1, 0,17,40.00,50.00,Sunday
9,305682.4143501625
342,1340109.5666988076
2,1, 1, 1, 0,17,50.00,60.00,Sunday
9,305682.4143501625
342,1363495.4199625529
2,1, 1, 1, 0,18, 0.00,10.00,Sunday
9,305682.4143501625
342,1398843.6208455624
2,1, 1, 1, 0,18,10.00,20.00,Sunday
9,305682.4143501625
342,1427060.940813081
2,1, 1, 1, 0,18,20.00,30.00,Sunday
9,305682.4143501625
342,1454489.8408550313
2,1, 1, 1, 0,18,30.00,40.00,Sunday
9,305682.4143501625
342,1480213.5613308738
2,1, 1, 1, 0,18,40.00,50.00,Sunday
9,305682.4143501625
342,1503369.5134806589
2,1, 1, 1, 0,18,50.00,60.00,Sunday
9,305682.4143501625
342,1525187.2376364829
2,1, 1, 1, 0,19, 0.00,10.00,Sunday
9,305682.4143501625
342,1545156.7492020557
2,1, 1, 1, 0,19,10.00,20.00,Sunday
9,305682.4143501625
342,1563055.1891586146
2,1, 1, 1, 0,19,20.00,30.00,Sunday
9,305682.4143501625
342,1580616.731481008
2,1, 1, 1, 0,19,30.00,40.00,Sunday
9,305682.4143501625
342,1596974.9022201359
2,1, 1, 1, 0,19,40.00,50.00,Sunday
9,305682.4143501625
342,1612864.280377085
2,1, 1, 1, 0,19,50.00,60.00,Sunday
9,305682.4143501625
342,1628162.3733822534
2,1, 1, 1, 0,20, 0.00,10.00,Sunday
9,305682.4143501625
342,1610503.0411209514
2,1, 1, 1, 0,20,10.00,20.00,Sunday
9,305682.4143501625
342,1591482.7532452995
2,1, 1, 1, 0,20,20.00,30.00,Sunday
9,305682.4143501625
342,1572259.6892577955
2,1, 1, 1, 0,20,30.00,40.00,Sunday
9,305682.4143501625
342,1552603.581544972
2,1, 1, 1, 0,20,40.00,50.00,Sunday
9,305682.4143501625
342,1532377.9948820784
2,1, 1, 1, 0,20,50.00,60.00,Sunday
9,305682.4143501625
342,1511883.456531618
2,1, 1, 1, 0,21, 0.00,10.00,Sunday
9,305682.4143501625
342,1524428.3445818234
2,1, 1, 1, 0,21,10.00,20.00,Sunday
9,305682.4143501625
342,1537297.8832877977
2,1, 1, 1, 0,21,20.00,30.00,Sunday
9,305682.4143501625
342,1550134.7463869944
2,1, 1, 1, 0,21,30.00,40.00,Sunday
9,305682.4143501625
342,1562799.9099980738
2,1, 1, 1, 0,21,40.00,50.00,Sunday
9,305682.4143501625
342,1575404.291520389
2,1, 1, 1, 0,21,50.00,60.00,Sunday
9,305682.4143501625
342,1587798.1466034889
2,1, 1, 1, 0,22, 0.00,10.00,Sunday
9,305682.4143501625
342,1577490.6949369072
2,1, 1, 1, 0,22,10.00,20.00,Sunday
9,305682.4143501625
342,1566811.5311924052
2,1, 1, 1, 0,22,20.00,30.00,Sunday
9,305682.4143501625
342,1555882.5366696127
2,1, 1, 1, 0,22,30.00,40.00,Sunday
9,305682.4143501625
342,1544817.8124649195
2,1, 1, 1, 0,22,40.00,50.00,Sunday
9,305682.4143501625
342,1533586.5372187584
2,1, 1, 1, 0,22,50.00,60.00,Sunday
9,305682.4143501625
342,1522220.6724878289
2,1, 1, 1, 0,23, 0.00,10.00,Sunday
9,305682.4143501625
342,1534627.6603008563
2,1, 1, 1, 0,23,10.00,20.00,Sunday
9,305682.4143501625
342,1547621.8168018358
2,1, 1, 1, 0,23,20.00,30.00,Sunday
9,305682.4143501625
342,1560753.2387289785
2,1, 1, 1, 0,23,30.00,40.00,Sunday
9,305682.4143501625
342,1573951.6869510667
2,1, 1, 1, 0,23,40.00,50.00,Sunday
9,305682.4143501625
342,1587232.8102308689
2,1, 1, 1, 0,23,50.00,60.00,Sunday
9,305682.4143501625
342,1600559.495247336
2,1, 1, 1, 0,24, 0.00,10.00,Sunday
9,305682.4143501625
342,1601700.3842968464
2,1, 1, 1, 0,24,10.00,20.00,Sunday
9,305682.4143501625
342,1602531.2627391786
2,1, 1, 1, 0,24,20.00,30.00,Sunday
9,305682.4143501625
342,1603262.6852354226
2,1, 1, 1, 0,24,30.00,40.00,Sunday
9,305682.4143501625
342,1603934.6645858135
2,1, 1, 1, 0,24,40.00,50.00,Sunday
9,305682.4143501625
342,1604535.3544759856
2,1, 1, 1, 0,24,50.00,60.00,Sunday
9,305682.4143501625
342,1605089.9803118187
2,2, 1, 2, 0, 1, 0.00,10.00,Monday
9,346182.4143501625
342,1598764.9717845007
2,2, 1, 2, 0, 1,10.00,20.00,Monday
9,346182.4143501625
342,1644004.129155136
2,2, 1, 2, 0, 1,20.00,30.00,Monday
9,346182.4143501625
342,1689583.4434663135
2,2, 1, 2, 0, 1,30.00,40.00,Monday
9,346182.4143501625
342,1735393.0885469837
2,2, 1, 2, 0, 1,40.00,50.00,Monday
9,346182.4143501625
342,1783032.9828329194
2,2, 1, 2, 0, 1,50.00,60.00,Monday
9,346182.4143501625
342,1828311.8111272057
2,2, 1, 2, 0, 2, 0.00,10.00,Monday
9,346182.4143501625
342,1808440.623970483
2,2, 1, 2, 0, 2,10.00,20.00,Monday
9,346182.4143501625
342,1787077.0084050399
2,2, 1, 2, 0, 2,20.00,30.00,Monday
9,346182.4143501625
342,1765392.8993628736
2,2, 1, 2, 0, 2,30.00,40.00,Monday
9,346182.4143501625
342,1743487.1802930597
2,2, 1, 2, 0, 2,40.00,50.00,Monday
9,346182.4143501625
342,1721290.8441217738
2,2, 1, 2, 0, 2,50.00,60.00,Monday
9,346182.4143501625
342,1698927.903516244
2,2, 1, 2, 0, 3, 0.00,10.00,Monday
9,346182.4143501625
342,1708251.158686928
2,2, 1, 2, 0, 3,10.00,20.00,Monday
9,346182.4143501625
342,1718143.0783075477
2,2, 1, 2, 0, 3,20.00,30.00,Monday
9,346182.4143501625
342,1728214.680901656
2,2, 1, 2, 0, 3,30.00,40.00,Monday
9,346182.4143501625
342,1738374.194237675
2,2, 1, 2, 0, 3,40.00,50.00,Monday
9,346182.4143501625
342,1748628.8517459064
2,2, 1, 2, 0, 3,50.00,60.00,Monday
9,346182.4143501625
342,1758939.2611829988
2,2, 1, 2, 0, 4, 0.00,10.00,Monday
9,346182.4143501625
342,1749312.2537101666
2,2, 1, 2, 0, 4,10.00,20.00,Monday
9,346182.4143501625
342,1739155.9231951582
2,2, 1, 2, 0, 4,20.00,30.00,Monday
9,346182.4143501625
342,1728826.2707419275
2,2, 1, 2, 0, 4,30.00,40.00,Monday
9,346182.4143501625
342,1718394.4152732313
2,2, 1, 2, 0, 4,40.00,50.00,Monday
9,346182.4143501625
342,1707857.0421236056
2,2, 1, 2, 0, 4,50.00,60.00,Monday
9,346182.4143501625
342,1697250.5091645867
2,2, 1, 2, 0, 5, 0.00,10.00,Monday
9,346182.4143501625
342,1662850.8950987086
2,2, 1, 2, 0, 5,10.00,20.00,Monday
9,346182.4143501625
342,1627943.1526970438
2,2, 1, 2, 0, 5,20.00,30.00,Monday
9,346182.4143501625
342,1592888.741208649
2,2, 1, 2, 0, 5,30.00,40.00,Monday
9,346182.4143501625
342,1557735.5716151298
2,2, 1, 2, 0, 5,40.00,50.00,Monday
9,346182.4143501625
342,1522465.721251978
2,2, 1, 2, 0, 5,50.00,60.00,Monday
9,346182.4143501625
342,1487127.2079784563
2,2, 1, 2, 0, 6, 0.00,10.00,Monday
9,379932.4143501625
342,1443337.937782702
2,2, 1, 2, 0, 6,10.00,20.00,Monday
9,379932.4143501625
342,1442426.4949303414
2,2, 1, 2, 0, 6,20.00,30.00,Monday
9,379932.4143501625
342,1441728.9798794387
2,2, 1, 2, 0, 6,30.00,40.00,Monday
9,379932.4143501625
342,1441157.1459655874
2,2, 1, 2, 0, 6,40.00,50.00,Monday
9,379932.4143501625
342,1440737.0274265283
2,2, 1, 2, 0, 6,50.00,60.00,Monday
9,379932.4143501625
342,1440405.8869215553
2,2, 1, 2, 0, 7, 0.00,10.00,Monday
9,379932.4143501625
342,9028366.691071507
2,2, 1, 2, 0, 7,10.00,20.00,Monday
9,379932.4143501625
342,4142805.545408789
2,2, 1, 2, 0, 7,20.00,30.00,Monday
9,379932.4143501625
342,4613835.473232147
2,2, 1, 2, 0, 7,30.00,40.00,Monday
9,379932.4143501625
342,3971937.954220057
2,2, 1, 2, 0, 7,40.00,50.00,Monday
9,379932.4143501625
342,3683580.7133732379
2,2, 1, 2, 0, 7,50.00,60.00,Monday
9,379932.4143501625
342,3501093.906353177
2,2, 1, 2, 0, 8, 0.00,10.00,Monday
9,514932.4143501625
342,3133396.266418771
2,2, 1, 2, 0, 8,10.00,20.00,Monday
9,514932.4143501625
342,3034911.8848380648
2,2, 1, 2, 0, 8,20.00,30.00,Monday
9,514932.4143501625
342,2930903.9460928079
2,2, 1, 2, 0, 8,30.00,40.00,Monday
9,514932.4143501625
342,2840793.0531424197
2,2, 1, 2, 0, 8,40.00,50.00,Monday
9,514932.4143501625
342,2769892.1858523159
2,2, 1, 2, 0, 8,50.00,60.00,Monday
9,514932.4143501625
342,2707555.1659105226
2,2, 1, 2, 0, 9, 0.00,10.00,Monday
9,1122432.4143501626
342,1653043.3537417732
2,2, 1, 2, 0, 9,10.00,20.00,Monday
9,1122432.4143501626
342,1592861.2293539069
2,2, 1, 2, 0, 9,20.00,30.00,Monday
9,1122432.4143501626
342,1533779.9777053293
2,2, 1, 2, 0, 9,30.00,40.00,Monday
9,1122432.4143501626
342,1467367.501196492
2,2, 1, 2, 0, 9,40.00,50.00,Monday
9,1122432.4143501626
342,1404458.6914572537
2,2, 1, 2, 0, 9,50.00,60.00,Monday
9,1122432.4143501626
342,1343395.775705379
2,2, 1, 2, 0,10, 0.00,10.00,Monday
9,1122432.4143501626
342,1282149.3545270356
2,2, 1, 2, 0,10,10.00,20.00,Monday
9,1122432.4143501626
342,1221523.383761971
2,2, 1, 2, 0,10,20.00,30.00,Monday
9,1122432.4143501626
342,1162089.8273473548
2,2, 1, 2, 0,10,30.00,40.00,Monday
9,1122432.4143501626
342,1128544.7184923765
2,2, 1, 2, 0,10,40.00,50.00,Monday
9,1122432.4143501626
342,1097231.1941149808
2,2, 1, 2, 0,10,50.00,60.00,Monday
9,1122432.4143501626
342,1068859.5974746636
2,2, 1, 2, 0,11, 0.00,10.00,Monday
9,1122432.4143501626
342,1033478.6749106594
2,2, 1, 2, 0,11,10.00,20.00,Monday
9,1122432.4143501626
342,1003585.1245183079
2,2, 1, 2, 0,11,20.00,30.00,Monday
9,1122432.4143501626
342,973305.6739092257
2,2, 1, 2, 0,11,30.00,40.00,Monday
9,1122432.4143501626
342,932917.907059877
2,2, 1, 2, 0,11,40.00,50.00,Monday
9,1122432.4143501626
342,892913.3640633351
2,2, 1, 2, 0,11,50.00,60.00,Monday
9,1122432.4143501626
342,852137.5286864372
2,2, 1, 2, 0,12, 0.00,10.00,Monday
9,1122432.4143501626
342,824625.5547464744
2,2, 1, 2, 0,12,10.00,20.00,Monday
9,1122432.4143501626
342,795721.1187869654
2,2, 1, 2, 0,12,20.00,30.00,Monday
9,1122432.4143501626
342,766124.2970326928
2,2, 1, 2, 0,12,30.00,40.00,Monday
9,1122432.4143501626
342,748391.1231671209
2,2, 1, 2, 0,12,40.00,50.00,Monday
9,1122432.4143501626
342,730809.6044758393
2,2, 1, 2, 0,12,50.00,60.00,Monday
9,1122432.4143501626
342,714082.1584739942
2,2, 1, 2, 0,13, 0.00,10.00,Monday
9,1081932.4143501626
342,882689.605916517
2,2, 1, 2, 0,13,10.00,20.00,Monday
9,1081932.4143501626
342,869375.714998503
2,2, 1, 2, 0,13,20.00,30.00,Monday
9,1081932.4143501626
342,854971.365878888
2,2, 1, 2, 0,13,30.00,40.00,Monday
9,1081932.4143501626
342,851460.7090224119
2,2, 1, 2, 0,13,40.00,50.00,Monday
9,1081932.4143501626
342,848616.5399991138
2,2, 1, 2, 0,13,50.00,60.00,Monday
9,1081932.4143501626
342,846448.9640073305
2,2, 1, 2, 0,14, 0.00,10.00,Monday
9,1122432.4143501626
342,683814.920839016
2,2, 1, 2, 0,14,10.00,20.00,Monday
9,1122432.4143501626
342,705627.0279003779
2,2, 1, 2, 0,14,20.00,30.00,Monday
9,1122432.4143501626
342,727735.5077040454
2,2, 1, 2, 0,14,30.00,40.00,Monday
9,1122432.4143501626
342,759423.6949114432
2,2, 1, 2, 0,14,40.00,50.00,Monday
9,1122432.4143501626
342,792607.105356533
2,2, 1, 2, 0,14,50.00,60.00,Monday
9,1122432.4143501626
342,826940.6383999046
2,2, 1, 2, 0,15, 0.00,10.00,Monday
9,1122432.4143501626
342,844973.8490959926
2,2, 1, 2, 0,15,10.00,20.00,Monday
9,1122432.4143501626
342,864651.8687860296
2,2, 1, 2, 0,15,20.00,30.00,Monday
9,1122432.4143501626
342,883856.7999107754
2,2, 1, 2, 0,15,30.00,40.00,Monday
9,1122432.4143501626
342,915367.9444261347
2,2, 1, 2, 0,15,40.00,50.00,Monday
9,1122432.4143501626
342,946707.6183932405
2,2, 1, 2, 0,15,50.00,60.00,Monday
9,1122432.4143501626
342,979538.7726550319
2,2, 1, 2, 0,16, 0.00,10.00,Monday
9,1122432.4143501626
342,989806.8449094354
2,2, 1, 2, 0,16,10.00,20.00,Monday
9,1122432.4143501626
342,1002414.4644282039
2,2, 1, 2, 0,16,20.00,30.00,Monday
9,1122432.4143501626
342,1015422.6595362611
2,2, 1, 2, 0,16,30.00,40.00,Monday
9,1122432.4143501626
342,1016738.2399708729
2,2, 1, 2, 0,16,40.00,50.00,Monday
9,1122432.4143501626
342,1015919.6933778348
2,2, 1, 2, 0,16,50.00,60.00,Monday
9,1122432.4143501626
342,1018263.7780217329
2,2, 1, 2, 0,17, 0.00,10.00,Monday
9,1122432.4143501626
342,1039283.589595392
2,2, 1, 2, 0,17,10.00,20.00,Monday
9,1122432.4143501626
342,1060864.6843830315
2,2, 1, 2, 0,17,20.00,30.00,Monday
9,1122432.4143501626
342,1108312.632833108
2,2, 1, 2, 0,17,30.00,40.00,Monday
9,1122432.4143501626
342,1119810.8782206239
2,2, 1, 2, 0,17,40.00,50.00,Monday
9,1122432.4143501626
342,1130713.4382543714
2,2, 1, 2, 0,17,50.00,60.00,Monday
9,1122432.4143501626
342,1139819.2666494484
2,2, 1, 2, 0,18, 0.00,10.00,Monday
9,825432.4143501625
342,1730725.831501475
2,2, 1, 2, 0,18,10.00,20.00,Monday
9,825432.4143501625
342,1754976.3126161423
2,2, 1, 2, 0,18,20.00,30.00,Monday
9,825432.4143501625
342,1778464.1745472968
2,2, 1, 2, 0,18,30.00,40.00,Monday
9,825432.4143501625
342,1800179.3417109783
2,2, 1, 2, 0,18,40.00,50.00,Monday
9,825432.4143501625
342,1820199.737702912
2,2, 1, 2, 0,18,50.00,60.00,Monday
9,825432.4143501625
342,1838762.6466269142
2,2, 1, 2, 0,19, 0.00,10.00,Monday
9,649932.4143501625
342,2107119.806570837
2,2, 1, 2, 0,19,10.00,20.00,Monday
9,649932.4143501625
342,2095099.360306048
2,2, 1, 2, 0,19,20.00,30.00,Monday
9,649932.4143501625
342,2082806.1217780505
2,2, 1, 2, 0,19,30.00,40.00,Monday
9,649932.4143501625
342,2069695.8279398205
2,2, 1, 2, 0,19,40.00,50.00,Monday
9,649932.4143501625
342,2055779.0587767864
2,2, 1, 2, 0,19,50.00,60.00,Monday
9,649932.4143501625
342,2041381.587487091
2,2, 1, 2, 0,20, 0.00,10.00,Monday
9,649932.4143501625
342,2035808.1891823759
2,2, 1, 2, 0,20,10.00,20.00,Monday
9,649932.4143501625
342,2029727.0671437123
2,2, 1, 2, 0,20,20.00,30.00,Monday
9,649932.4143501625
342,2023629.3360238323
2,2, 1, 2, 0,20,30.00,40.00,Monday
9,649932.4143501625
342,2017347.527340827
2,2, 1, 2, 0,20,40.00,50.00,Monday
9,649932.4143501625
342,2010899.9996757643
2,2, 1, 2, 0,20,50.00,60.00,Monday
9,649932.4143501625
342,2004305.9716060139
2,2, 1, 2, 0,21, 0.00,10.00,Monday
9,514932.4143501625
342,2179776.652487204
2,2, 1, 2, 0,21,10.00,20.00,Monday
9,514932.4143501625
342,2172171.9912994697
2,2, 1, 2, 0,21,20.00,30.00,Monday
9,514932.4143501625
342,2164333.164175652
2,2, 1, 2, 0,21,30.00,40.00,Monday
9,514932.4143501625
342,2156327.5950694407
2,2, 1, 2, 0,21,40.00,50.00,Monday
9,514932.4143501625
342,2148234.213588632
2,2, 1, 2, 0,21,50.00,60.00,Monday
9,514932.4143501625
342,2140037.1764231824
2,2, 1, 2, 0,22, 0.00,10.00,Monday
9,514932.4143501625
342,2132967.79866098
2,2, 1, 2, 0,22,10.00,20.00,Monday
9,514932.4143501625
342,2125798.597067056
2,2, 1, 2, 0,22,20.00,30.00,Monday
9,514932.4143501625
342,2118590.6571128817
2,2, 1, 2, 0,22,30.00,40.00,Monday
9,514932.4143501625
342,2111326.618048899
2,2, 1, 2, 0,22,40.00,50.00,Monday
9,514932.4143501625
342,2104038.563263195
2,2, 1, 2, 0,22,50.00,60.00,Monday
9,514932.4143501625
342,2096708.6749708728
2,2, 1, 2, 0,23, 0.00,10.00,Monday
9,379932.4143501625
342,116966.06205913481
2,2, 1, 2, 0,23,10.00,20.00,Monday
9,379932.4143501625
342,39756.68772804079
2,2, 1, 2, 0,23,20.00,30.00,Monday
9,379932.4143501625
342,22741.881602562487
2,2, 1, 2, 0,23,30.00,40.00,Monday
9,379932.41435016246
342,12574.7559987678
2,2, 1, 2, 0,23,40.00,50.00,Monday
9,379932.4143501625
342,0.0
2,2, 1, 2, 0,23,50.00,60.00,Monday
9,379932.4143501625
342,36245.119534179765
2,2, 1, 2, 0,24, 0.00,10.00,Monday
9,346182.4143501625
342,388798.0039715462
2,2, 1, 2, 0,24,10.00,20.00,Monday
9,346182.4143501625
342,431700.73229987968
2,2, 1, 2, 0,24,20.00,30.00,Monday
9,346182.4143501625
342,507827.47538174447
2,2, 1, 2, 0,24,30.00,40.00,Monday
9,346182.4143501625
342,608761.1100477122
2,2, 1, 2, 0,24,40.00,50.00,Monday
9,346182.4143501625
342,678230.7970835948
2,2, 1, 2, 0,24,50.00,60.00,Monday
9,346182.4143501625
342,733097.2631105624
2,3, 1, 3, 0, 1, 0.00,10.00,Tuesday
9,346182.4143501625
342,804734.714706375
2,3, 1, 3, 0, 1,10.00,20.00,Tuesday
9,346182.4143501625
342,844841.2664619582
2,3, 1, 3, 0, 1,20.00,30.00,Tuesday
9,346182.4143501625
342,883487.5264969657
2,3, 1, 3, 0, 1,30.00,40.00,Tuesday
9,346182.4143501625
342,916613.0042830842
2,3, 1, 3, 0, 1,40.00,50.00,Tuesday
9,346182.4143501625
342,945842.7323054739
2,3, 1, 3, 0, 1,50.00,60.00,Tuesday
9,346182.4143501625
342,970873.1764447462
2,3, 1, 3, 0, 2, 0.00,10.00,Tuesday
9,346182.4143501625
342,995630.4317518117
2,3, 1, 3, 0, 2,10.00,20.00,Tuesday
9,346182.4143501625
342,1015821.0156556032
2,3, 1, 3, 0, 2,20.00,30.00,Tuesday
9,346182.4143501625
342,1034947.9449280286
2,3, 1, 3, 0, 2,30.00,40.00,Tuesday
9,346182.4143501625
342,1051921.7424623557
2,3, 1, 3, 0, 2,40.00,50.00,Tuesday
9,346182.4143501625
342,1067240.144460491
2,3, 1, 3, 0, 2,50.00,60.00,Tuesday
9,346182.4143501625
342,1080432.2040209312
2,3, 1, 3, 0, 3, 0.00,10.00,Tuesday
9,346182.4143501625
342,1081739.0492168775
2,3, 1, 3, 0, 3,10.00,20.00,Tuesday
9,346182.4143501625
342,1080574.0458621949
2,3, 1, 3, 0, 3,20.00,30.00,Tuesday
9,346182.4143501625
342,1078980.4028907328
2,3, 1, 3, 0, 3,30.00,40.00,Tuesday
9,346182.4143501625
342,1076282.9009110628
2,3, 1, 3, 0, 3,40.00,50.00,Tuesday
9,346182.4143501625
342,1072705.6200734026
2,3, 1, 3, 0, 3,50.00,60.00,Tuesday
9,346182.4143501625
342,1068192.0808767533
2,3, 1, 3, 0, 4, 0.00,10.00,Tuesday
9,346182.4143501625
342,1090571.849172425
2,3, 1, 3, 0, 4,10.00,20.00,Tuesday
9,346182.4143501625
342,1110670.4882335428
2,3, 1, 3, 0, 4,20.00,30.00,Tuesday
9,346182.4143501625
342,1130578.9803696848
2,3, 1, 3, 0, 4,30.00,40.00,Tuesday
9,346182.4143501625
342,1149399.8447665624
2,3, 1, 3, 0, 4,40.00,50.00,Tuesday
9,346182.4143501625
342,1167691.1993626729
2,3, 1, 3, 0, 4,50.00,60.00,Tuesday
9,346182.4143501625
342,1185473.0838997986
2,3, 1, 3, 0, 5, 0.00,10.00,Tuesday
9,346182.4143501625
342,1213397.9108027176
2,3, 1, 3, 0, 5,10.00,20.00,Tuesday
9,346182.4143501625
342,1240654.626052216
2,3, 1, 3, 0, 5,20.00,30.00,Tuesday
9,346182.4143501625
342,1267793.498471088
2,3, 1, 3, 0, 5,30.00,40.00,Tuesday
9,346182.4143501625
342,1294717.2527431644
2,3, 1, 3, 0, 5,40.00,50.00,Tuesday
9,346182.4143501625
342,1321322.3237633038
2,3, 1, 3, 0, 5,50.00,60.00,Tuesday
9,346182.4143501625
342,1347729.5551600983
2,3, 1, 3, 0, 6, 0.00,10.00,Tuesday
9,379932.4143501625
342,1332046.754471017
2,3, 1, 3, 0, 6,10.00,20.00,Tuesday
9,379932.4143501625
342,1358226.168737572
2,3, 1, 3, 0, 6,20.00,30.00,Tuesday
9,379932.4143501625
342,1384360.226517178
2,3, 1, 3, 0, 6,30.00,40.00,Tuesday
9,379932.4143501625
342,1410391.6428162819
2,3, 1, 3, 0, 6,40.00,50.00,Tuesday
9,379932.4143501625
342,1436253.0077012364
2,3, 1, 3, 0, 6,50.00,60.00,Tuesday
9,379932.4143501625
342,1462022.708872191
2,3, 1, 3, 0, 7, 0.00,10.00,Tuesday
9,379932.4143501625
342,9024436.492241377
2,3, 1, 3, 0, 7,10.00,20.00,Tuesday
9,379932.4143501625
342,4176068.9983360834
2,3, 1, 3, 0, 7,20.00,30.00,Tuesday
9,379932.4143501625
342,4671076.361283503
2,3, 1, 3, 0, 7,30.00,40.00,Tuesday
9,379932.4143501625
342,4052553.2968448016
2,3, 1, 3, 0, 7,40.00,50.00,Tuesday
9,379932.4143501625
342,3787854.6947788645
2,3, 1, 3, 0, 7,50.00,60.00,Tuesday
9,379932.4143501625
342,3629054.3546663855
2,3, 1, 3, 0, 8, 0.00,10.00,Tuesday
9,514932.4143501625
342,3263656.7758213717
2,3, 1, 3, 0, 8,10.00,20.00,Tuesday
9,514932.4143501625
342,3167116.1014004128
2,3, 1, 3, 0, 8,20.00,30.00,Tuesday
9,514932.4143501625
342,3017745.5289335877
2,3, 1, 3, 0, 8,30.00,40.00,Tuesday
9,514932.4143501625
342,2905973.3458885669
2,3, 1, 3, 0, 8,40.00,50.00,Tuesday
9,514932.4143501625
342,2812284.273620442
2,3, 1, 3, 0, 8,50.00,60.00,Tuesday
9,514932.4143501625
342,2730165.018436897
2,3, 1, 3, 0, 9, 0.00,10.00,Tuesday
9,1122432.4143501626
342,1693003.6439202072
2,3, 1, 3, 0, 9,10.00,20.00,Tuesday
9,1122432.4143501626
342,1648814.5989307399
2,3, 1, 3, 0, 9,20.00,30.00,Tuesday
9,1122432.4143501626
342,1604171.1241797512
2,3, 1, 3, 0, 9,30.00,40.00,Tuesday
9,1122432.4143501626
342,1551650.6261618133
2,3, 1, 3, 0, 9,40.00,50.00,Tuesday
9,1122432.4143501626
342,1504126.9344192376
2,3, 1, 3, 0, 9,50.00,60.00,Tuesday
9,1122432.4143501626
342,1458801.056903586
2,3, 1, 3, 0,10, 0.00,10.00,Tuesday
9,1122432.4143501626
342,1398758.1531187534
2,3, 1, 3, 0,10,10.00,20.00,Tuesday
9,1122432.4143501626
342,1338500.0736743282
2,3, 1, 3, 0,10,20.00,30.00,Tuesday
9,1122432.4143501626
342,1280396.4887191815
2,3, 1, 3, 0,10,30.00,40.00,Tuesday
9,1122432.4143501626
342,1240370.8530476476
2,3, 1, 3, 0,10,40.00,50.00,Tuesday
9,1122432.4143501626
342,1201583.2180870989
2,3, 1, 3, 0,10,50.00,60.00,Tuesday
9,1122432.4143501626
342,1164665.445706483
2,3, 1, 3, 0,11, 0.00,10.00,Tuesday
9,1122432.4143501626
342,1119926.7809124438
2,3, 1, 3, 0,11,10.00,20.00,Tuesday
9,1122432.4143501626
342,1078380.8061198197
2,3, 1, 3, 0,11,20.00,30.00,Tuesday
9,1122432.4143501626
342,1036223.4270700425
2,3, 1, 3, 0,11,30.00,40.00,Tuesday
9,1122432.4143501626
342,1014572.0206761214
2,3, 1, 3, 0,11,40.00,50.00,Tuesday
9,1122432.4143501626
342,994508.7760949246
2,3, 1, 3, 0,11,50.00,60.00,Tuesday
9,1122432.4143501626
342,976360.9770601112
2,3, 1, 3, 0,12, 0.00,10.00,Tuesday
9,1122432.4143501626
342,956326.9887395422
2,3, 1, 3, 0,12,10.00,20.00,Tuesday
9,1122432.4143501626
342,939710.3063019893
2,3, 1, 3, 0,12,20.00,30.00,Tuesday
9,1122432.4143501626
342,922641.6488497559
2,3, 1, 3, 0,12,30.00,40.00,Tuesday
9,1122432.4143501626
342,908463.9591514112
2,3, 1, 3, 0,12,40.00,50.00,Tuesday
9,1122432.4143501626
342,895057.324531879
2,3, 1, 3, 0,12,50.00,60.00,Tuesday
9,1122432.4143501626
342,881906.7307733715
2,3, 1, 3, 0,13, 0.00,10.00,Tuesday
9,1081932.4143501626
342,1055376.6967410625
2,3, 1, 3, 0,13,10.00,20.00,Tuesday
9,1081932.4143501626
342,1046746.0489555742
2,3, 1, 3, 0,13,20.00,30.00,Tuesday
9,1081932.4143501626
342,1036672.2165233875
2,3, 1, 3, 0,13,30.00,40.00,Tuesday
9,1081932.4143501626
342,1027378.0803510471
2,3, 1, 3, 0,13,40.00,50.00,Tuesday
9,1081932.4143501626
342,1017431.6295212861
2,3, 1, 3, 0,13,50.00,60.00,Tuesday
9,1081932.4143501626
342,1006605.89839772
2,3, 1, 3, 0,14, 0.00,10.00,Tuesday
9,1122432.4143501626
342,816051.4520248951
2,3, 1, 3, 0,14,10.00,20.00,Tuesday
9,1122432.4143501626
342,807147.4888888007
2,3, 1, 3, 0,14,20.00,30.00,Tuesday
9,1122432.4143501626
342,797685.9666019871
2,3, 1, 3, 0,14,30.00,40.00,Tuesday
9,1122432.4143501626
342,809678.4323529658
2,3, 1, 3, 0,14,40.00,50.00,Tuesday
9,1122432.4143501626
342,823989.8625445775
2,3, 1, 3, 0,14,50.00,60.00,Tuesday
9,1122432.4143501626
342,840292.2734551944
2,3, 1, 3, 0,15, 0.00,10.00,Tuesday
9,1122432.4143501626
342,854352.6819862789
2,3, 1, 3, 0,15,10.00,20.00,Tuesday
9,1122432.4143501626
342,871723.4561470859
2,3, 1, 3, 0,15,20.00,30.00,Tuesday
9,1122432.4143501626
342,888541.0058198817
2,3, 1, 3, 0,15,30.00,40.00,Tuesday
9,1122432.4143501626
342,914045.3478070205
2,3, 1, 3, 0,15,40.00,50.00,Tuesday
9,1122432.4143501626
342,938475.6170913726
2,3, 1, 3, 0,15,50.00,60.00,Tuesday
9,1122432.4143501626
342,963597.0247093117
2,3, 1, 3, 0,16, 0.00,10.00,Tuesday
9,1122432.4143501626
342,989473.6267305282