Program Version,EnergyPlus, Version 8.6.0-198c6a3cff, YMD=2017.03.26 21:06
1,5,Environment Title[],Latitude[deg],Longitude[deg],Time Zone[],Elevation[m]
2,6,Day of Simulation[],Month[],Day of Month[],DST Indicator[1=yes 0=no],Hour[],StartMinute[],EndMinute[],DayType
3,3,Cumulative Day of Simulation[],Month[],Day of Month[],DST Indicator[1=yes 0=no],DayType  ! When Daily Meters Requested
4,2,Cumulative Days of Simulation[],Month[]  ! When Monthly Meters Requested
5,1,Cumulative Days of Simulation[] ! When Run Period Meters Requested
9,1,Electricity:Facility [J] !TimeStep
590,1,Gas:Facility [J] !TimeStep
End of Data Dictionary
1,RUN PERIOD 1,  41.98, -87.92,  -6.00, 201.00
2,1, 1, 1, 0, 1, 0.00,10.00,Sunday
9,19010613.771429328
590,12000.0
2,1, 1, 1, 0, 1,10.00,20.00,Sunday
9,19010613.771429328
590,12000.0
2,1, 1, 1, 0, 1,20.00,30.00,Sunday
9,19010613.771429328
590,12000.0
2,1, 1, 1, 0, 1,30.00,40.00,Sunday
9,19010613.771429328
590,12000.0
2,1, 1, 1, 0, 1,40.00,50.00,Sunday
9,19010613.771429328
590,12000.0
2,1, 1, 1, 0, 1,50.00,60.00,Sunday
9,19010613.771429328
590,12000.0
2,1, 1, 1, 0, 2, 0.00,10.00,Sunday
9,19010613.771429328
590,12000.0
2,1, 1, 1, 0, 2,10.00,20.00,Sunday
9,19010613.771429328
590,12000.0
2,1, 1, 1, 0, 2,20.00,30.00,Sunday
9,19010613.771429328
590,12000.0
2,1, 1, 1, 0, 2,30.00,40.00,Sunday
9,19010613.771429328
590,12000.0
2,1, 1, 1, 0, 2,40.00,50.00,Sunday
9,19010613.771429328
590,12000.0
2,1, 1, 1, 0, 2,50.00,60.00,Sunday
9,19010613.771429328
590,12000.0
2,1, 1, 1, 0, 3, 0.00,10.00,Sunday
9,19010613.771429328
590,12000.0
2,1, 1, 1, 0, 3,10.00,20.00,Sunday
9,19010613.771429328
590,12000.0
2,1, 1, 1, 0, 3,20.00,30.00,Sunday
9,19010613.771429328
590,12000.0
2,1, 1, 1, 0, 3,30.00,40.00,Sunday
9,19010613.771429328
590,12000.0
2,1, 1, 1, 0, 3,40.00,50.00,Sunday
9,19010613.771429328
590,12000.0
2,1, 1, 1, 0, 3,50.00,60.00,Sunday
9,19010613.771429328
590,12000.0
2,1, 1, 1, 0, 4, 0.00,10.00,Sunday
9,19010613.771429328
590,4872683.31259997
2,1, 1, 1, 0, 4,10.00,20.00,Sunday
9,19010613.771429328
590,12000.0
2,1, 1, 1, 0, 4,20.00,30.00,Sunday
9,19010613.771429328
590,12000.0
2,1, 1, 1, 0, 4,30.00,40.00,Sunday
9,19010613.771429328
590,12000.0
2,1, 1, 1, 0, 4,40.00,50.00,Sunday
9,19010613.771429328
590,12000.0
2,1, 1, 1, 0, 4,50.00,60.00,Sunday
9,19010613.771429328
590,12000.0
2,1, 1, 1, 0, 5, 0.00,10.00,Sunday
9,19010613.771429328
590,12000.0
2,1, 1, 1, 0, 5,10.00,20.00,Sunday
9,19010613.771429328
590,12000.0
2,1, 1, 1, 0, 5,20.00,30.00,Sunday
9,19010613.771429328
590,12000.0
2,1, 1, 1, 0, 5,30.00,40.00,Sunday
9,19010613.771429328
590,12000.0
2,1, 1, 1, 0, 5,40.00,50.00,Sunday
9,19010613.771429328
590,12000.0
2,1, 1, 1, 0, 5,50.00,60.00,Sunday
9,19010613.771429328
590,12000.0
2,1, 1, 1, 0, 6, 0.00,10.00,Sunday
9,19010613.771429328
590,12000.0
2,1, 1, 1, 0, 6,10.00,20.00,Sunday
9,19010613.771429328
590,12000.0
2,1, 1, 1, 0, 6,20.00,30.00,Sunday
9,19010613.771429328
590,12000.0
2,1, 1, 1, 0, 6,30.00,40.00,Sunday
9,19010613.771429328
590,12000.0
2,1, 1, 1, 0, 6,40.00,50.00,Sunday
9,19010613.771429328
590,12000.0
2,1, 1, 1, 0, 6,50.00,60.00,Sunday
9,19010613.771429328
590,12000.0
2,1, 1, 1, 0, 7, 0.00,10.00,Sunday
9,19011299.544412514
590,4878078.761413416
2,1, 1, 1, 0, 7,10.00,20.00,Sunday
9,19011299.544412514
590,12000.0
2,1, 1, 1, 0, 7,20.00,30.00,Sunday
9,19011299.544412514
590,12000.0
2,1, 1, 1, 0, 7,30.00,40.00,Sunday
9,19011299.544412514
590,12000.0
2,1, 1, 1, 0, 7,40.00,50.00,Sunday
9,19011299.544412514
590,12000.0
2,1, 1, 1, 0, 7,50.00,60.00,Sunday
9,19011299.544412514
590,4878205.347857271
2,1, 1, 1, 0, 8, 0.00,10.00,Sunday
9,19011299.544412514
590,12000.0
2,1, 1, 1, 0, 8,10.00,20.00,Sunday
9,19011299.544412514
590,12000.0
2,1, 1, 1, 0, 8,20.00,30.00,Sunday
9,19011299.544412514
590,12000.0
2,1, 1, 1, 0, 8,30.00,40.00,Sunday
9,19011299.544412514
590,4877514.750540809
2,1, 1, 1, 0, 8,40.00,50.00,Sunday
9,19011299.544412514
590,12000.0
2,1, 1, 1, 0, 8,50.00,60.00,Sunday
9,19011299.544412514
590,12000.0
2,1, 1, 1, 0, 9, 0.00,10.00,Sunday
9,19011299.544412514
590,12000.0
2,1, 1, 1, 0, 9,10.00,20.00,Sunday
9,19011299.544412514
590,12000.0
2,1, 1, 1, 0, 9,20.00,30.00,Sunday
9,19011299.544412514
590,4878175.595301431
2,1, 1, 1, 0, 9,30.00,40.00,Sunday
9,19011299.544412514
590,12000.0
2,1, 1, 1, 0, 9,40.00,50.00,Sunday
9,19011299.544412514
590,12000.0
2,1, 1, 1, 0, 9,50.00,60.00,Sunday
9,19011299.544412514
590,12000.0
2,1, 1, 1, 0,10, 0.00,10.00,Sunday
9,19011299.544412514
590,12000.0
2,1, 1, 1, 0,10,10.00,20.00,Sunday
9,19011299.544412514
590,4878010.472964985
2,1, 1, 1, 0,10,20.00,30.00,Sunday
9,19011299.544412514
590,12000.0
2,1, 1, 1, 0,10,30.00,40.00,Sunday
9,19011299.544412514
590,12000.0
2,1, 1, 1, 0,10,40.00,50.00,Sunday
9,19011299.544412514
590,12000.0
2,1, 1, 1, 0,10,50.00,60.00,Sunday
9,19011299.544412514
590,12000.0
2,1, 1, 1, 0,11, 0.00,10.00,Sunday
9,19011299.544412514
590,4878094.155246697
2,1, 1, 1, 0,11,10.00,20.00,Sunday
9,19011299.544412514
590,12000.0
2,1, 1, 1, 0,11,20.00,30.00,Sunday
9,19011299.544412514
590,12000.0
2,1, 1, 1, 0,11,30.00,40.00,Sunday
9,19011299.544412514
590,12000.0
2,1, 1, 1, 0,11,40.00,50.00,Sunday
9,19011299.544412514
590,12000.0
2,1, 1, 1, 0,11,50.00,60.00,Sunday
9,19011299.544412514
590,4877901.585828473
2,1, 1, 1, 0,12, 0.00,10.00,Sunday
9,19011642.430904107
590,12000.0
2,1, 1, 1, 0,12,10.00,20.00,Sunday
9,19011642.430904107
590,12000.0
2,1, 1, 1, 0,12,20.00,30.00,Sunday
9,19011642.430904107
590,12000.0
2,1, 1, 1, 0,12,30.00,40.00,Sunday
9,19011642.430904107
590,4880796.265683284
2,1, 1, 1, 0,12,40.00,50.00,Sunday
9,19011642.430904107
590,12000.0
2,1, 1, 1, 0,12,50.00,60.00,Sunday
9,19011642.430904107
590,12000.0
2,1, 1, 1, 0,13, 0.00,10.00,Sunday
9,19011642.430904107
590,4880148.926732849
2,1, 1, 1, 0,13,10.00,20.00,Sunday
9,19011642.430904107
590,12000.0
2,1, 1, 1, 0,13,20.00,30.00,Sunday
9,19011642.430904107
590,12000.0
2,1, 1, 1, 0,13,30.00,40.00,Sunday
9,19011642.430904107
590,12000.0
2,1, 1, 1, 0,13,40.00,50.00,Sunday
9,19011642.430904107
590,4880604.267093561
2,1, 1, 1, 0,13,50.00,60.00,Sunday
9,19011642.430904107
590,12000.0
2,1, 1, 1, 0,14, 0.00,10.00,Sunday
9,19012156.760641494
590,12000.0
2,1, 1, 1, 0,14,10.00,20.00,Sunday
9,19012156.760641494
590,4884507.735222055
2,1, 1, 1, 0,14,20.00,30.00,Sunday
9,19012156.760641494
590,12000.0
2,1, 1, 1, 0,14,30.00,40.00,Sunday
9,19012156.760641494
590,4883644.928368202
2,1, 1, 1, 0,14,40.00,50.00,Sunday
9,19012156.760641494
590,12000.0
2,1, 1, 1, 0,14,50.00,60.00,Sunday
9,19012156.760641494
590,12000.0
2,1, 1, 1, 0,15, 0.00,10.00,Sunday
9,19011642.430904107
590,4880241.236247091
2,1, 1, 1, 0,15,10.00,20.00,Sunday
9,19011642.430904107
590,12000.0
2,1, 1, 1, 0,15,20.00,30.00,Sunday
9,19011642.430904107
590,12000.0
2,1, 1, 1, 0,15,30.00,40.00,Sunday
9,19011642.430904107
590,12000.0
2,1, 1, 1, 0,15,40.00,50.00,Sunday
9,19011642.430904107
590,4880695.089885088
2,1, 1, 1, 0,15,50.00,60.00,Sunday
9,19011642.430904107
590,12000.0
2,1, 1, 1, 0,16, 0.00,10.00,Sunday
9,19011299.544412514
590,12000.0
2,1, 1, 1, 0,16,10.00,20.00,Sunday
9,19011299.544412514
590,12000.0
2,1, 1, 1, 0,16,20.00,30.00,Sunday
9,19011299.544412514
590,4877819.5120261409
2,1, 1, 1, 0,16,30.00,40.00,Sunday
9,19011299.544412514
590,12000.0
2,1, 1, 1, 0,16,40.00,50.00,Sunday
9,19011299.544412514
590,12000.0
2,1, 1, 1, 0,16,50.00,60.00,Sunday
9,19011299.544412514
590,12000.0
2,1, 1, 1, 0,17, 0.00,10.00,Sunday
9,19011299.544412514
590,12000.0
2,1, 1, 1, 0,17,10.00,20.00,Sunday
9,19011299.544412514
590,4877882.977041201
2,1, 1, 1, 0,17,20.00,30.00,Sunday
9,19011299.544412514
590,12000.0
2,1, 1, 1, 0,17,30.00,40.00,Sunday
9,19011299.544412514
590,12000.0
2,1, 1, 1, 0,17,40.00,50.00,Sunday
9,19011299.544412514
590,12000.0
2,1, 1, 1, 0,17,50.00,60.00,Sunday
9,19011299.544412514
590,12000.0
2,1, 1, 1, 0,18, 0.00,10.00,Sunday
9,19011299.544412514
590,4877947.8322495999
2,1, 1, 1, 0,18,10.00,20.00,Sunday
9,19011299.544412514
590,12000.0
2,1, 1, 1, 0,18,20.00,30.00,Sunday
9,19011299.544412514
590,12000.0
2,1, 1, 1, 0,18,30.00,40.00,Sunday
9,19011299.544412514
590,12000.0
2,1, 1, 1, 0,18,40.00,50.00,Sunday
9,19011299.544412514
590,12000.0
2,1, 1, 1, 0,18,50.00,60.00,Sunday
9,19011299.544412514
590,4878015.190330644
2,1, 1, 1, 0,19, 0.00,10.00,Sunday
9,19010613.771429328
590,12000.0
2,1, 1, 1, 0,19,10.00,20.00,Sunday
9,19010613.771429328
590,12000.0
2,1, 1, 1, 0,19,20.00,30.00,Sunday
9,19010613.771429328
590,12000.0
2,1, 1, 1, 0,19,30.00,40.00,Sunday
9,19010613.771429328
590,12000.0
2,1, 1, 1, 0,19,40.00,50.00,Sunday
9,19010613.771429328
590,12000.0
2,1, 1, 1, 0,19,50.00,60.00,Sunday
9,19010613.771429328
590,12000.0
2,1, 1, 1, 0,20, 0.00,10.00,Sunday
9,19010613.771429328
590,12000.0
2,1, 1, 1, 0,20,10.00,20.00,Sunday
9,19010613.771429328
590,12000.0
2,1, 1, 1, 0,20,20.00,30.00,Sunday
9,19010613.771429328
590,12000.0
2,1, 1, 1, 0,20,30.00,40.00,Sunday
9,19010613.771429328
590,12000.0
2,1, 1, 1, 0,20,40.00,50.00,Sunday
9,19010613.771429328
590,12000.0
2,1, 1, 1, 0,20,50.00,60.00,Sunday
9,19010613.771429328
590,12000.0
2,1, 1, 1, 0,21, 0.00,10.00,Sunday
9,19010613.771429328
590,12000.0
2,1, 1, 1, 0,21,10.00,20.00,Sunday
9,19010613.771429328
590,12000.0
2,1, 1, 1, 0,21,20.00,30.00,Sunday
9,19010613.771429328
590,12000.0
2,1, 1, 1, 0,21,30.00,40.00,Sunday
9,19010613.771429328
590,12000.0
2,1, 1, 1, 0,21,40.00,50.00,Sunday
9,19010613.771429328
590,4872681.491922401
2,1, 1, 1, 0,21,50.00,60.00,Sunday
9,19010613.771429328
590,12000.0
2,1, 1, 1, 0,22, 0.00,10.00,Sunday
9,19010613.771429328
590,12000.0
2,1, 1, 1, 0,22,10.00,20.00,Sunday
9,19010613.771429328
590,12000.0
2,1, 1, 1, 0,22,20.00,30.00,Sunday
9,19010613.771429328
590,12000.0
2,1, 1, 1, 0,22,30.00,40.00,Sunday
9,19010613.771429328
590,12000.0
2,1, 1, 1, 0,22,40.00,50.00,Sunday
9,19010613.771429328
590,12000.0
2,1, 1, 1, 0,22,50.00,60.00,Sunday
9,19010613.771429328
590,12000.0
2,1, 1, 1, 0,23, 0.00,10.00,Sunday
9,19010613.771429328
590,12000.0
2,1, 1, 1, 0,23,10.00,20.00,Sunday
9,19010613.771429328
590,12000.0
2,1, 1, 1, 0,23,20.00,30.00,Sunday
9,19010613.771429328
590,12000.0
2,1, 1, 1, 0,23,30.00,40.00,Sunday
9,19010613.771429328
590,12000.0
2,1, 1, 1, 0,23,40.00,50.00,Sunday
9,19010613.771429328
590,12000.0
2,1, 1, 1, 0,23,50.00,60.00,Sunday
9,19010613.771429328
590,12000.0
2,1, 1, 1, 0,24, 0.00,10.00,Sunday
9,19010613.771429328
590,12000.0
2,1, 1, 1, 0,24,10.00,20.00,Sunday
9,19010613.771429328
590,12000.0
2,1, 1, 1, 0,24,20.00,30.00,Sunday
9,19010613.771429328
590,12000.0
2,1, 1, 1, 0,24,30.00,40.00,Sunday
9,19010613.771429328
590,12000.0
2,1, 1, 1, 0,24,40.00,50.00,Sunday
9,19010613.771429328
590,12000.0
2,1, 1, 1, 0,24,50.00,60.00,Sunday
9,19010613.771429328
590,4872616.526737578
2,2, 1, 2, 0, 1, 0.00,10.00,Monday
9,23835853.380804328
590,12000.0
2,2, 1, 2, 0, 1,10.00,20.00,Monday
9,23835853.380804328
590,12000.0
2,2, 1, 2, 0, 1,20.00,30.00,Monday
9,23835853.380804328
590,12000.0
2,2, 1, 2, 0, 1,30.00,40.00,Monday
9,23835853.380804328
590,12000.0
2,2, 1, 2, 0, 1,40.00,50.00,Monday
9,23835853.380804328
590,12000.0
2,2, 1, 2, 0, 1,50.00,60.00,Monday
9,23835853.380804328
590,12000.0
2,2, 1, 2, 0, 2, 0.00,10.00,Monday
9,23835853.380804328
590,12000.0
2,2, 1, 2, 0, 2,10.00,20.00,Monday
9,23835853.380804328
590,12000.0
2,2, 1, 2, 0, 2,20.00,30.00,Monday
9,23835853.380804328
590,12000.0
2,2, 1, 2, 0, 2,30.00,40.00,Monday
9,23835853.380804328
590,12000.0
2,2, 1, 2, 0, 2,40.00,50.00,Monday
9,23835853.380804328
590,12000.0
2,2, 1, 2, 0, 2,50.00,60.00,Monday
9,23835853.380804328
590,12000.0
2,2, 1, 2, 0, 3, 0.00,10.00,Monday
9,23835853.380804328
590,12000.0
2,2, 1, 2, 0, 3,10.00,20.00,Monday
9,23835853.380804328
590,12000.0
2,2, 1, 2, 0, 3,20.00,30.00,Monday
9,23835853.380804328
590,12000.0
2,2, 1, 2, 0, 3,30.00,40.00,Monday
9,23835853.380804328
590,12000.0
2,2, 1, 2, 0, 3,40.00,50.00,Monday
9,23835853.380804328
590,12000.0
2,2, 1, 2, 0, 3,50.00,60.00,Monday
9,23835853.380804328
590,12000.0
2,2, 1, 2, 0, 4, 0.00,10.00,Monday
9,23835853.380804328
590,4872589.113761101
2,2, 1, 2, 0, 4,10.00,20.00,Monday
9,23835853.380804328
590,12000.0
2,2, 1, 2, 0, 4,20.00,30.00,Monday
9,23835853.380804328
590,12000.0
2,2, 1, 2, 0, 4,30.00,40.00,Monday
9,23835853.380804328
590,12000.0
2,2, 1, 2, 0, 4,40.00,50.00,Monday
9,23835853.380804328
590,12000.0
2,2, 1, 2, 0, 4,50.00,60.00,Monday
9,23835853.380804328
590,12000.0
2,2, 1, 2, 0, 5, 0.00,10.00,Monday
9,23835853.380804328
590,12000.0
2,2, 1, 2, 0, 5,10.00,20.00,Monday
9,23835853.380804328
590,12000.0
2,2, 1, 2, 0, 5,20.00,30.00,Monday
9,23835853.380804328
590,12000.0
2,2, 1, 2, 0, 5,30.00,40.00,Monday
9,23835853.380804328
590,12000.0
2,2, 1, 2, 0, 5,40.00,50.00,Monday
9,23835853.380804328
590,12000.0
2,2, 1, 2, 0, 5,50.00,60.00,Monday
9,23835853.380804328
590,12000.0
2,2, 1, 2, 0, 6, 0.00,10.00,Monday
9,856722213.6101955
590,12000.0
2,2, 1, 2, 0, 6,10.00,20.00,Monday
9,745513870.3798379
590,12000.0
2,2, 1, 2, 0, 6,20.00,30.00,Monday
9,700582217.4089457
590,12000.0
2,2, 1, 2, 0, 6,30.00,40.00,Monday
9,673480806.0157207
590,12000.0
2,2, 1, 2, 0, 6,40.00,50.00,Monday
9,614255312.7088645
590,12000.0
2,2, 1, 2, 0, 6,50.00,60.00,Monday
9,571673709.6388929
590,12000.0
2,2, 1, 2, 0, 7, 0.00,10.00,Monday
9,675024749.15632
590,4881583.919310972
2,2, 1, 2, 0, 7,10.00,20.00,Monday
9,618745729.0621148
590,12000.0
2,2, 1, 2, 0, 7,20.00,30.00,Monday
9,562677943.5794941
590,12000.0
2,2, 1, 2, 0, 7,30.00,40.00,Monday
9,533157456.6626233
590,4880581.830935537
2,2, 1, 2, 0, 7,40.00,50.00,Monday
9,519180146.05440178
590,12000.0
2,2, 1, 2, 0, 7,50.00,60.00,Monday
9,506182278.53621956
590,12000.0
2,2, 1, 2, 0, 8, 0.00,10.00,Monday
9,670832557.8435285
590,4897367.138199467
2,2, 1, 2, 0, 8,10.00,20.00,Monday
9,631923286.7295857
590,4897658.5592168499
2,2, 1, 2, 0, 8,20.00,30.00,Monday
9,594479859.2296567
590,12000.0
2,2, 1, 2, 0, 8,30.00,40.00,Monday
9,581553963.1222731
590,4897665.846986352
2,2, 1, 2, 0, 8,40.00,50.00,Monday
9,565517013.2324715
590,4896669.789549113
2,2, 1, 2, 0, 8,50.00,60.00,Monday
9,553365001.0201287
590,4895669.275337853
2,2, 1, 2, 0, 9, 0.00,10.00,Monday
9,567592622.9900802
590,4919561.017212029
2,2, 1, 2, 0, 9,10.00,20.00,Monday
9,553862441.0766189
590,4918245.691722165
2,2, 1, 2, 0, 9,20.00,30.00,Monday
9,544180933.4689571
590,9826028.9854437
2,2, 1, 2, 0, 9,30.00,40.00,Monday
9,535179743.82256296
590,4917026.386988659
2,2, 1, 2, 0, 9,40.00,50.00,Monday
9,526867533.3212484
590,4918469.810234659
2,2, 1, 2, 0, 9,50.00,60.00,Monday
9,519034239.3553483
590,9827781.21515791
2,2, 1, 2, 0,10, 0.00,10.00,Monday
9,511533609.5640856
590,4921423.965150827
2,2, 1, 2, 0,10,10.00,20.00,Monday
9,504389380.8010554
590,9834639.175793577
2,2, 1, 2, 0,10,20.00,30.00,Monday
9,497479103.7207437
590,4921118.81046916
2,2, 1, 2, 0,10,30.00,40.00,Monday
9,491840707.76765456
590,9834041.126309
2,2, 1, 2, 0,10,40.00,50.00,Monday
9,486874191.4743036
590,4920813.590129541
2,2, 1, 2, 0,10,50.00,60.00,Monday
9,482216098.07168218
590,9833443.008671252
2,2, 1, 2, 0,11, 0.00,10.00,Monday
9,477358848.47463896
590,4921901.277303905
2,2, 1, 2, 0,11,10.00,20.00,Monday
9,472665884.67688038
590,9835936.788062662
2,2, 1, 2, 0,11,20.00,30.00,Monday
9,468124824.2441115
590,4921906.241046728
2,2, 1, 2, 0,11,30.00,40.00,Monday
9,463222581.0373195
590,9835946.496909619
2,2, 1, 2, 0,11,40.00,50.00,Monday
9,458209732.6994138
590,4921911.187371469
2,2, 1, 2, 0,11,50.00,60.00,Monday
9,453177131.71123859
590,9835956.173635399
2,2, 1, 2, 0,12, 0.00,10.00,Monday
9,448650221.4129327
590,4933088.059659943
2,2, 1, 2, 0,12,10.00,20.00,Monday
9,444140019.28239139
590,9860745.922922843
2,2, 1, 2, 0,12,20.00,30.00,Monday
9,439643079.3923524
590,9859089.812008903
2,2, 1, 2, 0,12,30.00,40.00,Monday
9,435603464.21469816
590,9857422.935062724
2,2, 1, 2, 0,12,40.00,50.00,Monday
9,431778448.71288439
590,9855745.272639409
2,2, 1, 2, 0,12,50.00,60.00,Monday
9,428058373.50575259
590,4933028.40328082
2,2, 1, 2, 0,13, 0.00,10.00,Monday
9,426857584.7238987
590,9888717.985505047
2,2, 1, 2, 0,13,10.00,20.00,Monday
9,423304079.4518679
590,14829090.578919638
2,2, 1, 2, 0,13,20.00,30.00,Monday
9,419801388.0237791
590,9883187.209593572
2,2, 1, 2, 0,13,30.00,40.00,Monday
9,416772920.70511379
590,9884579.28326361
2,2, 1, 2, 0,13,40.00,50.00,Monday
9,414057716.295604
590,9885958.791414939
2,2, 1, 2, 0,13,50.00,60.00,Monday
9,411588589.348036
590,9887325.890192356
2,2, 1, 2, 0,14, 0.00,10.00,Monday
9,409152540.4163201
590,9880237.74856431
2,2, 1, 2, 0,14,10.00,20.00,Monday
9,408886562.76032337
590,9880683.946699316
2,2, 1, 2, 0,14,20.00,30.00,Monday
9,408982516.25139936
590,9881128.214598457
2,2, 1, 2, 0,14,30.00,40.00,Monday
9,409487082.0322717
590,14816355.84709972
2,2, 1, 2, 0,14,40.00,50.00,Monday
9,410262902.71743306
590,9873780.8993961
2,2, 1, 2, 0,14,50.00,60.00,Monday
9,411095527.72745808
590,9874255.407215363
2,2, 1, 2, 0,15, 0.00,10.00,Monday
9,410433775.2655038
590,4915415.9879876
2,2, 1, 2, 0,15,10.00,20.00,Monday
9,409703119.518671
590,4916709.632940135
2,2, 1, 2, 0,15,20.00,30.00,Monday
9,408965206.5939367
590,9823970.13477258
2,2, 1, 2, 0,15,30.00,40.00,Monday
9,408568105.1751288
590,4915177.4569750609
2,2, 1, 2, 0,15,40.00,50.00,Monday
9,408339070.1967674
590,4916474.4647703119
2,2, 1, 2, 0,15,50.00,60.00,Monday
9,408219354.3141311
590,9823506.414819692
2,2, 1, 2, 0,16, 0.00,10.00,Monday
9,407643357.6557866
590,4913550.354503379
2,2, 1, 2, 0,16,10.00,20.00,Monday
9,407104146.0735197
590,4914696.846813389
2,2, 1, 2, 0,16,20.00,30.00,Monday
9,406594590.0013154
590,4915828.948712456
2,2, 1, 2, 0,16,30.00,40.00,Monday
9,405711860.0196357
590,9821893.75223209
2,2, 1, 2, 0,16,40.00,50.00,Monday
9,404589067.5734085
590,4913996.0141445989
2,2, 1, 2, 0,16,50.00,60.00,Monday
9,403334892.89615109
590,4915136.907275444
2,2, 1, 2, 0,17, 0.00,10.00,Monday
9,404554366.74174657
590,9850542.72631251
2,2, 1, 2, 0,17,10.00,20.00,Monday
9,404571683.1898555
590,9848610.741525626
2,2, 1, 2, 0,17,20.00,30.00,Monday
9,406481478.40967956
590,4932463.533465354
2,2, 1, 2, 0,17,30.00,40.00,Monday
9,406484586.9973862
590,9851653.560501075
2,2, 1, 2, 0,17,40.00,50.00,Monday
9,406561270.97179189
590,9848436.59219744
2,2, 1, 2, 0,17,50.00,60.00,Monday
9,406082339.59392848
590,4932695.084466996
2,2, 1, 2, 0,18, 0.00,10.00,Monday
9,378184823.0923609
590,4907024.168294526
2,2, 1, 2, 0,18,10.00,20.00,Monday
9,379879055.1707638
590,4907083.493011005
2,2, 1, 2, 0,18,20.00,30.00,Monday
9,380692680.0885194
590,4907142.740521629
2,2, 1, 2, 0,18,30.00,40.00,Monday
9,380998241.26750436
590,4907201.896976327
2,2, 1, 2, 0,18,40.00,50.00,Monday
9,380901759.07243999
590,4907260.957172596
2,2, 1, 2, 0,18,50.00,60.00,Monday
9,380389707.1302367
590,4907319.920648827
2,2, 1, 2, 0,19, 0.00,10.00,Monday
9,367211968.6301779
590,4900469.268994781
2,2, 1, 2, 0,19,10.00,20.00,Monday
9,367085560.2489972
590,4899777.849464563
2,2, 1, 2, 0,19,20.00,30.00,Monday
9,366450348.54441109
590,4899082.107746095
2,2, 1, 2, 0,19,30.00,40.00,Monday
9,365557441.19261828
590,4898382.023054708
2,2, 1, 2, 0,19,40.00,50.00,Monday
9,364469109.54306516
590,4897677.574761713
2,2, 1, 2, 0,19,50.00,60.00,Monday
9,363243344.96891769
590,12000.0
2,2, 1, 2, 0,20, 0.00,10.00,Monday
9,362340892.1078977
590,4892066.12246523
2,2, 1, 2, 0,20,10.00,20.00,Monday
9,361388051.9656624
590,4890466.879002981
2,2, 1, 2, 0,20,20.00,30.00,Monday
9,360389176.51188346
590,12000.0
2,2, 1, 2, 0,20,30.00,40.00,Monday
9,359346840.95983538
590,4891288.392067526
2,2, 1, 2, 0,20,40.00,50.00,Monday
9,358281889.13984808
590,12000.0
2,2, 1, 2, 0,20,50.00,60.00,Monday
9,357194859.4816741
590,4892102.060846372
2,2, 1, 2, 0,21, 0.00,10.00,Monday
9,350171529.93234059
590,4893254.784503203
2,2, 1, 2, 0,21,10.00,20.00,Monday
9,349516705.732647
590,12000.0
2,2, 1, 2, 0,21,20.00,30.00,Monday
9,348688703.1740883
590,4894679.9283096869
2,2, 1, 2, 0,21,30.00,40.00,Monday
9,347794102.36550906
590,4893381.924258419
2,2, 1, 2, 0,21,40.00,50.00,Monday
9,346843549.97014728
590,12000.0
2,2, 1, 2, 0,21,50.00,60.00,Monday
9,345855518.1678455
590,4894805.0600307709
2,2, 1, 2, 0,22, 0.00,10.00,Monday
9,344769595.8321293
590,12000.0
2,2, 1, 2, 0,22,10.00,20.00,Monday
9,343542595.3731353
590,4882498.327129782
2,2, 1, 2, 0,22,20.00,30.00,Monday
9,342268371.33522447
590,12000.0
2,2, 1, 2, 0,22,30.00,40.00,Monday
9,340969611.36877819
590,12000.0
2,2, 1, 2, 0,22,40.00,50.00,Monday
9,339652409.9073159
590,4882546.677900083
2,2, 1, 2, 0,22,50.00,60.00,Monday
9,338249420.1623081
590,12000.0
2,2, 1, 2, 0,23, 0.00,10.00,Monday
9,28371605.537793995
590,12000.0
2,2, 1, 2, 0,23,10.00,20.00,Monday
9,28371605.537793995
590,4879133.616253545
2,2, 1, 2, 0,23,20.00,30.00,Monday
9,28371605.537793995
590,12000.0
2,2, 1, 2, 0,23,30.00,40.00,Monday
9,28371605.537793995
590,12000.0
2,2, 1, 2, 0,23,40.00,50.00,Monday
9,28371605.537793995
590,12000.0
2,2, 1, 2, 0,23,50.00,60.00,Monday
9,28371605.537793995
590,12000.0
2,2, 1, 2, 0,24, 0.00,10.00,Monday
9,23836710.594489669
590,4879047.360176818
2,2, 1, 2, 0,24,10.00,20.00,Monday
9,23836710.594489669
590,12000.0
2,2, 1, 2, 0,24,20.00,30.00,Monday
9,23836710.594489669
590,12000.0
2,2, 1, 2, 0,24,30.00,40.00,Monday
9,23836710.594489669
590,12000.0
2,2, 1, 2, 0,24,40.00,50.00,Monday
9,23836710.594489669
590,4879283.139802324
2,2, 1, 2, 0,24,50.00,60.00,Monday
9,23836710.594489669
590,12000.0
2,3, 1, 3, 0, 1, 0.00,10.00,Tuesday
9,23835853.380804328
590,12000.0
2,3, 1, 3, 0, 1,10.00,20.00,Tuesday
9,23835853.380804328
590,12000.0
2,3, 1, 3, 0, 1,20.00,30.00,Tuesday
9,23835853.380804328
590,12000.0
2,3, 1, 3, 0, 1,30.00,40.00,Tuesday
9,23835853.380804328
590,12000.0
2,3, 1, 3, 0, 1,40.00,50.00,Tuesday
9,23835853.380804328
590,12000.0
2,3, 1, 3, 0, 1,50.00,60.00,Tuesday
9,23835853.380804328
590,12000.0
2,3, 1, 3, 0, 2, 0.00,10.00,Tuesday
9,23835853.380804328
590,12000.0
2,3, 1, 3, 0, 2,10.00,20.00,Tuesday
9,23835853.380804328
590,12000.0
2,3, 1, 3, 0, 2,20.00,30.00,Tuesday
9,23835853.380804328
590,12000.0
2,3, 1, 3, 0, 2,30.00,40.00,Tuesday
9,23835853.380804328
590,12000.0
2,3, 1, 3, 0, 2,40.00,50.00,Tuesday
9,23835853.380804328
590,12000.0
2,3, 1, 3, 0, 2,50.00,60.00,Tuesday
9,23835853.380804328
590,12000.0
2,3, 1, 3, 0, 3, 0.00,10.00,Tuesday
9,23835853.380804328
590,12000.0
2,3, 1, 3, 0, 3,10.00,20.00,Tuesday
9,23835853.380804328
590,12000.0
2,3, 1, 3, 0, 3,20.00,30.00,Tuesday
9,23835853.380804328
590,4872434.451729538
2,3, 1, 3, 0, 3,30.00,40.00,Tuesday
9,23835853.380804328
590,12000.0
2,3, 1, 3, 0, 3,40.00,50.00,Tuesday
9,23835853.380804328
590,12000.0
2,3, 1, 3, 0, 3,50.00,60.00,Tuesday
9,23835853.380804328
590,12000.0
2,3, 1, 3, 0, 4, 0.00,10.00,Tuesday
9,23835853.380804328
590,12000.0
2,3, 1, 3, 0, 4,10.00,20.00,Tuesday
9,23835853.380804328
590,12000.0
2,3, 1, 3, 0, 4,20.00,30.00,Tuesday
9,23835853.380804328
590,12000.0
2,3, 1, 3, 0, 4,30.00,40.00,Tuesday
9,23835853.380804328
590,12000.0
2,3, 1, 3, 0, 4,40.00,50.00,Tuesday
9,23835853.380804328
590,12000.0
2,3, 1, 3, 0, 4,50.00,60.00,Tuesday
9,23835853.380804328
590,12000.0
2,3, 1, 3, 0, 5, 0.00,10.00,Tuesday
9,23835853.380804328
590,12000.0
2,3, 1, 3, 0, 5,10.00,20.00,Tuesday
9,23835853.380804328
590,12000.0
2,3, 1, 3, 0, 5,20.00,30.00,Tuesday
9,23835853.380804328
590,12000.0
2,3, 1, 3, 0, 5,30.00,40.00,Tuesday
9,23835853.380804328
590,12000.0
2,3, 1, 3, 0, 5,40.00,50.00,Tuesday
9,23835853.380804328
590,12000.0
2,3, 1, 3, 0, 5,50.00,60.00,Tuesday
9,23835853.380804328
590,12000.0
2,3, 1, 3, 0, 6, 0.00,10.00,Tuesday
9,666805282.3628327
590,12000.0
2,3, 1, 3, 0, 6,10.00,20.00,Tuesday
9,456637370.2053237
590,12000.0
2,3, 1, 3, 0, 6,20.00,30.00,Tuesday
9,433230289.03905799
590,12000.0
2,3, 1, 3, 0, 6,30.00,40.00,Tuesday
9,405543397.5231961
590,12000.0
2,3, 1, 3, 0, 6,40.00,50.00,Tuesday
9,365344683.99942806
590,12000.0
2,3, 1, 3, 0, 6,50.00,60.00,Tuesday
9,358029929.37149509
590,12000.0
2,3, 1, 3, 0, 7, 0.00,10.00,Tuesday
9,468270723.210556
590,4881712.955480188
2,3, 1, 3, 0, 7,10.00,20.00,Tuesday
9,389412882.0515302
590,12000.0
2,3, 1, 3, 0, 7,20.00,30.00,Tuesday
9,382463879.1723682
590,12000.0
2,3, 1, 3, 0, 7,30.00,40.00,Tuesday
9,361486883.4603503
590,4880542.494627391
2,3, 1, 3, 0, 7,40.00,50.00,Tuesday
9,356770392.5670527
590,12000.0
2,3, 1, 3, 0, 7,50.00,60.00,Tuesday
9,353405739.3437222
590,12000.0
2,3, 1, 3, 0, 8, 0.00,10.00,Tuesday
9,512813834.8666089
590,4897788.655064567
2,3, 1, 3, 0, 8,10.00,20.00,Tuesday
9,387025841.94196107
590,4896173.925104943
2,3, 1, 3, 0, 8,20.00,30.00,Tuesday
9,432421588.1093314
590,4895172.560001055
2,3, 1, 3, 0, 8,30.00,40.00,Tuesday
9,414343430.4829082
590,12000.0
2,3, 1, 3, 0, 8,40.00,50.00,Tuesday
9,404613482.1364113
590,4897228.106165421
2,3, 1, 3, 0, 8,50.00,60.00,Tuesday
9,397980131.9755246
590,4896235.477767295
2,3, 1, 3, 0, 9, 0.00,10.00,Tuesday
9,430937618.27204629
590,4919250.851210512
2,3, 1, 3, 0, 9,10.00,20.00,Tuesday
9,425117236.3207429
590,4918855.63583284
2,3, 1, 3, 0, 9,20.00,30.00,Tuesday
9,420907094.68712
590,9828169.501832046
2,3, 1, 3, 0, 9,30.00,40.00,Tuesday
9,417067308.437577
590,4919494.38135039
2,3, 1, 3, 0, 9,40.00,50.00,Tuesday
9,413565428.24622645
590,9825801.46394649
2,3, 1, 3, 0, 9,50.00,60.00,Tuesday
9,410385603.0417417
590,4920129.447234637
2,3, 1, 3, 0,10, 0.00,10.00,Tuesday
9,406551177.75309649
590,4924069.969630368
2,3, 1, 3, 0,10,10.00,20.00,Tuesday
9,402481392.2706154
590,9835857.480916147
2,3, 1, 3, 0,10,20.00,30.00,Tuesday
9,399355261.03323879
590,4923293.4579552379
2,3, 1, 3, 0,10,30.00,40.00,Tuesday
9,395434716.5779378
590,9835293.845885175
2,3, 1, 3, 0,10,40.00,50.00,Tuesday
9,376310509.111798
590,4923505.681804599
2,3, 1, 3, 0,10,50.00,60.00,Tuesday
9,360666722.12040689
590,9834823.05766513
2,3, 1, 3, 0,11, 0.00,10.00,Tuesday
9,366013418.4846748
590,4925680.118615422
2,3, 1, 3, 0,11,10.00,20.00,Tuesday
9,360975911.1843374
590,9837347.95447389
2,3, 1, 3, 0,11,20.00,30.00,Tuesday
9,357741255.8897057
590,4925697.420217625
2,3, 1, 3, 0,11,30.00,40.00,Tuesday
9,354572616.65528628
590,9837382.8826992
2,3, 1, 3, 0,11,40.00,50.00,Tuesday
9,352556638.03032419
590,4925714.66439579
2,3, 1, 3, 0,11,50.00,60.00,Tuesday
9,349788918.2415734
590,9837417.69604125
2,3, 1, 3, 0,12, 0.00,10.00,Tuesday
9,347992395.4887038
590,6194788.3910068669
2,3, 1, 3, 0,12,10.00,20.00,Tuesday
9,345335796.527437
590,8598549.85532555
2,3, 1, 3, 0,12,20.00,30.00,Tuesday
9,343509459.8627694
590,9860228.040270742
2,3, 1, 3, 0,12,30.00,40.00,Tuesday
9,341084708.82528427
590,9858999.698035535
2,3, 1, 3, 0,12,40.00,50.00,Tuesday
9,339945569.33860197
590,9860224.23719635
2,3, 1, 3, 0,12,50.00,60.00,Tuesday
9,337551794.4432441
590,5034449.245211581
2,3, 1, 3, 0,13, 0.00,10.00,Tuesday
9,339936812.40718308
590,14724655.297170246
2,3, 1, 3, 0,13,10.00,20.00,Tuesday
9,338156299.2453463
590,9883529.889641442
2,3, 1, 3, 0,13,20.00,30.00,Tuesday
9,336817939.7996819
590,9885297.415591848
2,3, 1, 3, 0,13,30.00,40.00,Tuesday
9,335238841.5364653
590,9886696.630114247
2,3, 1, 3, 0,13,40.00,50.00,Tuesday
9,332268222.2562644
590,9888083.123416748
2,3, 1, 3, 0,13,50.00,60.00,Tuesday
9,321554645.91067436
590,14251787.380702906
2,3, 1, 3, 0,14, 0.00,10.00,Tuesday
9,315602056.52632048
590,10449778.31429508
2,3, 1, 3, 0,14,10.00,20.00,Tuesday
9,314813937.7751829
590,9874276.003132854
2,3, 1, 3, 0,14,20.00,30.00,Tuesday
9,313037292.8229877
590,9874773.209629838
2,3, 1, 3, 0,14,30.00,40.00,Tuesday
9,312182493.95182499
590,9875268.14593774
2,3, 1, 3, 0,14,40.00,50.00,Tuesday
9,311603439.9094224
590,9875760.829307948
2,3, 1, 3, 0,14,50.00,60.00,Tuesday
9,311191524.346008
590,9876251.276135207
2,3, 1, 3, 0,15, 0.00,10.00,Tuesday
9,310119492.79492798
590,4916376.804094816
2,3, 1, 3, 0,15,10.00,20.00,Tuesday
9,309017147.3937218
590,4917665.284934392
2,3, 1, 3, 0,15,20.00,30.00,Tuesday
9,307897576.9658204
590,9825871.174607784
2,3, 1, 3, 0,15,30.00,40.00,Tuesday
9,306890242.2157005
590,4916159.238357092
2,3, 1, 3, 0,15,40.00,50.00,Tuesday
9,305910733.50560536
590,4917450.793413463
2,3, 1, 3, 0,15,50.00,60.00,Tuesday
9,304935007.83506658
590,9825448.23714838
2,3, 1, 3, 0,16, 0.00,10.00,Tuesday
9,304603674.579816
590,4914550.861015776
2,3, 1, 3, 0,16,10.00,20.00,Tuesday
9,304385648.9698578
590,4915692.8407447789
2,3, 1, 3, 0,16,20.00,30.00,Tuesday
9,304238656.55105307
590,9821640.89997014
2,3, 1, 3, 0,16,30.00,40.00,Tuesday
9,304011428.1095376
590,4913871.350140748
2,3, 1, 3, 0,16,40.00,50.00,Tuesday
9,303684461.50731709
590,4915021.897646321
2,3, 1, 3, 0,16,50.00,60.00,Tuesday
9,303553327.5852553
590,4916157.945555951
2,3, 1, 3, 0,17, 0.00,10.00,Tuesday
9,304391074.2751534
590,9853266.3018765
2,3, 1, 3, 0,17,10.00,20.00,Tuesday
9,305479439.76676347
590,9850731.895083607
2,3, 1, 3, 0,17,20.00,30.00,Tuesday
9,308325239.519149
590,4930084.70889278
2,3, 1, 3, 0,17,30.00,40.00,Tuesday
9,309628374.22040399
590,9853782.424439727
2,3, 1, 3, 0,17,40.00,50.00,Tuesday
9,310272725.65880027
590,9851253.748010112
2,3, 1, 3, 0,17,50.00,60.00,Tuesday
9,310639373.7948815
590,9848697.042508517
2,3, 1, 3, 0,18, 0.00,10.00,Tuesday
9,299742893.84812846
590,4903996.001912556
2,3, 1, 3, 0,18,10.00,20.00,Tuesday
9,302053800.0090311
590,4904066.2182511179
2,3, 1, 3, 0,18,20.00,30.00,Tuesday
9,303050097.7111523
590,4904136.320494689
2,3, 1, 3, 0,18,30.00,40.00,Tuesday
9,303483128.6059329
590,4904206.303699796
2,3, 1, 3, 0,18,40.00,50.00,Tuesday
9,303586500.83904698
590,4904276.165658668
2,3, 1, 3, 0,18,50.00,60.00,Tuesday
9,303459788.3653402
590,4904345.905756981
2,3, 1, 3, 0,19, 0.00,10.00,Tuesday
9,298038916.91637369
590,12000.0
2,3, 1, 3, 0,19,10.00,20.00,Tuesday
9,299256514.2249387
590,4900850.016480717
2,3, 1, 3, 0,19,20.00,30.00,Tuesday
9,299880082.69623216
590,4900165.229085018
2,3, 1, 3, 0,19,30.00,40.00,Tuesday
9,300263420.5306318
590,4899476.19482072
2,3, 1, 3, 0,19,40.00,50.00,Tuesday
9,300492770.6834669
590,4898782.894401151
2,3, 1, 3, 0,19,50.00,60.00,Tuesday
9,300619321.1228769
590,4898085.309155822
2,3, 1, 3, 0,20, 0.00,10.00,Tuesday
9,300372391.199483
590,12000.0
2,3, 1, 3, 0,20,10.00,20.00,Tuesday
9,300023826.9181803
590,4891553.257839174
2,3, 1, 3, 0,20,20.00,30.00,Tuesday
9,299626472.33370169
590,12000.0