Program Version,EnergyPlus, Version 8.6.0-198c6a3cff, YMD=2017.03.26 20:53
1,5,Environment Title[],Latitude[deg],Longitude[deg],Time Zone[],Elevation[m]
2,6,Day of Simulation[],Month[],Day of Month[],DST Indicator[1=yes 0=no],Hour[],StartMinute[],EndMinute[],DayType
3,3,Cumulative Day of Simulation[],Month[],Day of Month[],DST Indicator[1=yes 0=no],DayType  ! When Daily Meters Requested
4,2,Cumulative Days of Simulation[],Month[]  ! When Monthly Meters Requested
5,1,Cumulative Days of Simulation[] ! When Run Period Meters Requested
12,9,Electricity:Facility [J] !Monthly  [Value,Min,Day,Hour,Minute,Max,Day,Hour,Minute]
593,9,Gas:Facility [J] !Monthly  [Value,Min,Day,Hour,Minute,Max,Day,Hour,Minute]
End of Data Dictionary
1,RUN PERIOD 1,  41.78, -87.75,  -6.00, 186.00
4,31, 1
12,843583540351.7314,15613324.337302395, 3, 1,10,812579269.8446392,19, 6,10
593,14728515320.28531,11999.999999999996, 6, 6,30,14835728.111514077,30,13,50
4,59, 2
12,646209940543.5127,15613324.337302395, 1, 1,10,908233634.9470905, 2, 6,10
593,13469575023.049605,11999.999999999996, 2, 7,10,14836855.139250169,16,13,40
4,90, 3
12,506101301482.9644,15613324.337302395, 1, 1,10,751657455.7428362, 2, 6,10
593,14522651555.00131,11999.999999999996, 2, 6,30,14835227.375139548, 4,13,30
4,120, 4
12,359368667349.25464,15613324.337302395, 4, 1,10,350517863.5529624,20, 6,10
593,13774721215.56771,11999.999999999996, 9, 6,10,14827230.608312918, 1,13,60
4,151, 5
12,300152390312.481,15613324.337302395, 2, 1,10,270925126.64754548, 2, 6,10
593,12702643019.968382,11999.999999999996, 7, 6,10,9878249.834719122, 4,13,60
4,181, 6
12,342175949099.60706,15613324.337302395, 6, 1,10,243984775.06289608, 1, 8,10
593,12038799681.429593,11999.999999999996, 3, 6,10,9869312.684957317, 1,13,40
4,212, 7
12,366244611878.89374,15613324.337302395, 4, 1,10,246559355.0310646,24,15,60
593,11853998635.042832,11999.999999999996,20, 6,10,9859617.028615917, 2,13,30
4,243, 8
12,349457554030.61285,15613324.337302395, 1, 1,10,202480027.90555213, 4,12,60
593,10983954828.384228,11999.999999999996, 4, 6,10,9855142.330624907,27,13,60
4,273, 9
12,326007287496.2184,15613324.337302395, 5, 1,10,214367488.54804308,25, 8,10
593,11441030142.908553,11999.999999999996,12,18,10,9860335.835543562,30,13,10
4,304,10
12,367101797840.81537,15613324.337302395, 3, 1,10,424144040.69362309,26, 6,10
593,12323945068.682774,11999.999999999996,13, 6,10,9869481.931465827,29,13,10
4,334,11
12,417074102797.4765,15613324.337302395, 1, 1,10,627103407.8438634,30, 6,10
593,12540332816.824542,11999.999999999996, 6,23,20,9879119.48896348,27,13,60
4,365,12
12,698727488594.2583,15613324.337302395, 5, 1,10,751450874.6299027,24, 6,10
593,14433895575.643132,11999.999999999996, 4, 6,20,14827838.712122467,30,13,30
End of Data
 Number of Records Written=          24
